# vtk DataFile Version 2.0
Exported by GetFEM
ASCII
DATASET UNSTRUCTURED_GRID
POINTS 35 float
 2 0 0
 2.2085 0 0
 2.417 0 0
 1.945 0.232905 0
 2.10001 0.2265 0
 1.78302 0.453 0
 2.12969 0.748564 0
 1.95635 0.600782 0
 2.34407 0.385927 0
 0 1.583 0
 0 1.2915 0
 0 1 0
 0.716965 1.51175 0
 0.684695 1.15221 0
 1.36939 1.30442 0
 1.165 0.812831 0
 1.2672 1.05862 0
 0.611832 0.952058 0
 2.8335 0 0
 3.25 0 0
 2.68984 0.374282 0
 2.83277 1.348 0
 2.48123 1.04828 0
 3.14396 0.696732 0
 1.80027 1.05625 0
 2.10108 1.32621 0
 1.783 2.29921 0
 1.5762 1.80181 0
 2.37534 1.87691 0
 0.8915 1.9411 0
 0.930446 2.63489 0
 0 2.75 0
 0 2.1665 0
 1.5173 0.651501 0
 1.64734 0.780697 0

CELLS 12 84
 6 0 2 5 1 4 3
 6 6 5 2 7 4 8
 6 9 11 14 10 13 12
 6 15 14 11 16 13 17
 6 2 19 6 18 20 8
 6 21 6 19 22 20 23
 6 6 21 14 22 25 24
 6 26 14 21 27 25 28
 6 14 26 9 27 29 12
 6 26 31 9 30 32 29
 6 5 6 15 7 34 33
 6 14 15 6 16 34 24

CELL_TYPES 12
 22
 22
 22
 22
 22
 22
 22
 22
 22
 22
 22
 22

POINT_DATA 35


SCALARS sigmayy float 1
LOOKUP_TABLE default
 88.2333 59.9099 33.0151 93.7351 56.7319 26.6937 26.6555 35.1351 43.6874 4.4064 2.49544 3.12441 7.88591 5.35149 14.2342 11.3299 12.1013 -5.84348 14.2885 -2.9997 19.1152 19.7426 28.0968 9.74926 20.8056 19.9132 21.9551 20.2646 20.4708 12.118 17.9269 18.0267 11.4409 8.14364 20.719

VECTORS RHS float
 0 0 0 0 0 0 0 0 0 0 0 0 0 0 0 0 0 0 0 0 0 0 0 0 0 0 0 0 0 0 0 0 0 0 0 0 0 0 0 0 0 0 0 0 0 0 0 0 0 0 0 0 0 0 0 0 0 2.39822 0.0115331 0 0 0 0 4.03582 2.67913 0 0 0 0 8.98667 2.78156 0 0 0 0 0 0 0 2.71657 4.91137 0 0 0 0 6.34137 6.99844 0 0 0 0 3.00529 11.8867 0 0.0160599 3.23131 0 0 0 0 0 0 0 0 0 0
