# vtk DataFile Version 2.0
Exported by GetFEM
ASCII
DATASET UNSTRUCTURED_GRID
POINTS 12 float
 2.12969 0.748564 0
 1.78302 0.453 0
 2.417 0 0
 2 0 0
 1.165 0.812831 0
 1.36939 1.30442 0
 0 1 0
 0 1.583 0
 2.83277 1.348 0
 3.25 0 0
 1.783 2.29921 0
 0 2.75 0

CELLS 6 30
 4 0 1 3 2
 4 4 5 7 6
 4 8 0 2 9
 4 10 5 0 8
 4 5 10 11 7
 4 5 4 1 0

CELL_TYPES 6
 9
 9
 9
 9
 9
 9

POINT_DATA 12


SCALARS sigmayy float 1
LOOKUP_TABLE default
 0.209005 0.290208 0.442187 0.917658 0.192059 0.144665 0.0275584 0.091998 0.230231 0.152918 0.161154 0.141913

VECTORS RHS float
 0 0 0 0 0 0 0 0 0 0 0 0 0 0 0 0 0 0 0 0 0 0 0 0 0.11496 0.07335 0 0.0674 0.0208617 0 0.0701 0.141638 0 0.0225397 0.08915 0

VECTORS U float
 3.4557e-06 1.10553e-05 0 1.19052e-06 1.52916e-05 0 -5.7822e-07 -1.06762e-22 0 6.81731e-07 -3.24658e-21 0 1.32e-06 3.09867e-05 0 6.32407e-06 2.87398e-05 0 2.55859e-21 4.05242e-05 0 0 4.08095e-05 0 1.01308e-05 6.11463e-06 0 1.11913e-06 1.1748e-21 0 1.55801e-05 2.66484e-05 0 0 4.22975e-05 0
