# vtk DataFile Version 2.0
Exported by GetFEM
ASCII
DATASET UNSTRUCTURED_GRID
POINTS 12 float
 2 0 0
 2.417 0 0
 1.78302 0.453 0
 2.12969 0.748564 0
 0 1.583 0
 0 1 0
 1.36939 1.30442 0
 1.165 0.812831 0
 3.25 0 0
 2.83277 1.348 0
 1.783 2.29921 0
 0 2.75 0

CELLS 12 48
 3 0 1 2
 3 3 2 1
 3 4 5 6
 3 7 6 5
 3 1 8 3
 3 9 3 8
 3 10 6 9
 3 6 3 9
 3 6 10 4
 3 10 11 4
 3 2 3 7
 3 6 7 3

CELL_TYPES 12
 5
 5
 5
 5
 5
 5
 5
 5
 5
 5
 5
 5

POINT_DATA 12


SCALARS sigmayy float 1
LOOKUP_TABLE default
 63.4522 34.1864 30.5802 14.1455 12.6514 7.51352 14.1455 14.1455 12.6646 28.9732 12.6514 12.6514

VECTORS RHS float
 0 0 0 0 0 0 0 0 0 0 0 0 0 0 0 0 0 0 0 0 0 0 0 0 0.674 0.208617 0 1.1496 0.7335 0 0.701 1.41638 0 0.225397 0.8915 0

VECTORS U float
 7.37731e-05 2.16842e-20 0 5.78007e-05 -8.32439e-21 0 5.06786e-05 0.000109115 0 6.65213e-05 8.86409e-05 0 9.0813e-21 0.000315503 0 2.66737e-20 0.000318094 0 7.36308e-05 0.000220482 0 4.26904e-05 0.000231573 0 6.26927e-05 1.18722e-20 0 0.000120362 6.63731e-05 0 0.000130655 0.000223586 0 -6.15928e-20 0.00033108 0
