# vtk DataFile Version 2.0
Exported by GetFEM
ASCII
DATASET UNSTRUCTURED_GRID
POINTS 12 float
 2.12969 0.748564 0
 1.78302 0.453 0
 2.417 0 0
 2 0 0
 1.165 0.812831 0
 1.36939 1.30442 0
 0 1 0
 0 1.583 0
 2.83277 1.348 0
 3.25 0 0
 1.783 2.29921 0
 0 2.75 0

CELLS 6 30
 4 0 1 3 2
 4 4 5 7 6
 4 8 0 2 9
 4 10 5 0 8
 4 5 10 11 7
 4 5 4 1 0

CELL_TYPES 6
 9
 9
 9
 9
 9
 9

POINT_DATA 12


SCALARS sigmayy float 1
LOOKUP_TABLE default
 20.9005 29.0208 44.2187 91.7658 19.2059 14.4665 2.75584 9.19981 23.0231 15.2918 16.1154 14.1913
