# vtk DataFile Version 2.0
Exported by GetFEM
ASCII
DATASET UNSTRUCTURED_GRID
POINTS 35 float
 2 0 0
 2.2085 0 0
 2.417 0 0
 1.945 0.232905 0
 2.10001 0.2265 0
 1.78302 0.453 0
 2.12969 0.748564 0
 1.95635 0.600782 0
 2.34407 0.385927 0
 0 1.583 0
 0 1.2915 0
 0 1 0
 0.716965 1.51175 0
 0.684695 1.15221 0
 1.36939 1.30442 0
 1.165 0.812831 0
 1.2672 1.05862 0
 0.611832 0.952058 0
 2.8335 0 0
 3.25 0 0
 2.68984 0.374282 0
 2.83277 1.348 0
 2.48123 1.04828 0
 3.14396 0.696732 0
 1.80027 1.05625 0
 2.10108 1.32621 0
 1.783 2.29921 0
 1.5762 1.80181 0
 2.37534 1.87691 0
 0.8915 1.9411 0
 0.930446 2.63489 0
 0 2.75 0
 0 2.1665 0
 1.5173 0.651501 0
 1.64734 0.780697 0

CELLS 12 84
 6 0 2 5 1 4 3
 6 6 5 2 7 4 8
 6 9 11 14 10 13 12
 6 15 14 11 16 13 17
 6 2 19 6 18 20 8
 6 21 6 19 22 20 23
 6 6 21 14 22 25 24
 6 26 14 21 27 25 28
 6 14 26 9 27 29 12
 6 26 31 9 30 32 29
 6 5 6 15 7 34 33
 6 14 15 6 16 34 24

CELL_TYPES 12
 22
 22
 22
 22
 22
 22
 22
 22
 22
 22
 22
 22

POINT_DATA 35


SCALARS sigmayy float 1
LOOKUP_TABLE default
 8.82333 5.99099 3.30151 9.37351 5.67319 2.66937 2.66555 3.51351 4.36874 0.44064 0.249544 0.312441 0.788591 0.535149 1.42342 1.13298 1.21013 -0.584348 1.42885 -0.29997 1.91152 1.97426 2.80968 0.974926 2.08056 1.99132 2.19551 2.02646 2.04708 1.2118 1.79269 1.80267 1.14409 0.814364 2.0719

VECTORS RHS float
 0 0 0 0 0 0 0 0 0 0 0 0 0 0 0 0 0 0 0 0 0 0 0 0 0 0 0 0 0 0 0 0 0 0 0 0 0 0 0 0 0 0 0 0 0 0 0 0 0 0 0 0 0 0 0 0 0 0.239822 0.00115331 0 0 0 0 0.403582 0.267913 0 0 0 0 0.898667 0.278156 0 0 0 0 0 0 0 0.271657 0.491137 0 0 0 0 0.634137 0.699844 0 0 0 0 0.300529 1.18867 0 0.00160599 0.323131 0 0 0 0 0 0 0 0 0 0

VECTORS U float
 -8.00776e-05 2.91693e-21 0 -9.41651e-05 3.80813e-21 0 -9.46681e-05 -4.76606e-21 0 -8.50445e-05 9.35738e-05 0 -8.81149e-05 6.14613e-05 0 -7.06387e-05 0.000204368 0 -2.95235e-05 0.000135019 0 -4.87494e-05 0.000162224 0 -7.37928e-05 5.50434e-05 0 -1.0389e-20 0.000532737 0 -1.2093e-20 0.000533765 0 3.0346e-20 0.000533735 0 3.34849e-05 0.00048426 0 3.49858e-06 0.000487611 0 3.87025e-05 0.000366717 0 -4.07118e-05 0.000406498 0 3.50767e-06 0.000384149 0 -1.79792e-05 0.000496282 0 -8.20949e-05 7.11478e-21 0 -6.32189e-05 -1.37495e-20 0 -6.78529e-05 2.57283e-05 0 7.17795e-05 5.63688e-05 0 1.45414e-05 0.000101014 0 -1.96247e-05 2.30824e-07 0 1.47107e-05 0.00024575 0 5.45136e-05 0.000200783 0 0.000173727 0.000317962 0 9.99803e-05 0.000343254 0 0.000147311 0.00017569 0 6.97145e-05 0.000467337 0 0.000114904 0.00047202 0 -4.39007e-20 0.00052742 0 1.57557e-20 0.000528583 0 -5.72241e-05 0.000301874 0 -2.95057e-05 0.000268145 0
