# vtk DataFile Version 2.0
Exported by GetFEM
ASCII
DATASET UNSTRUCTURED_GRID
POINTS 29 float
 2.12969 0.748564 0
 1.95635 0.600782 0
 1.78302 0.453 0
 2.34407 0.385927 0
 1.945 0.232905 0
 2.417 0 0
 2.2085 0 0
 2 0 0
 1.165 0.812831 0
 1.2672 1.05862 0
 1.36939 1.30442 0
 0.611832 0.952058 0
 0.716965 1.51175 0
 0 1 0
 0 1.2915 0
 0 1.583 0
 2.83277 1.348 0
 2.48123 1.04828 0
 3.14396 0.696732 0
 3.25 0 0
 2.8335 0 0
 1.783 2.29921 0
 1.5762 1.80181 0
 2.37534 1.87691 0
 1.80027 1.05625 0
 0.930446 2.63489 0
 0 2.1665 0
 0 2.75 0
 1.5173 0.651501 0

CELLS 6 54
 8 0 2 7 5 1 4 6 3
 8 8 10 15 13 9 12 14 11
 8 16 0 5 19 17 3 20 18
 8 21 10 0 16 22 24 17 23
 8 10 21 27 15 22 25 26 12
 8 10 8 2 0 9 28 1 24

CELL_TYPES 6
 23
 23
 23
 23
 23
 23

POINT_DATA 29


SCALARS sigmayy float 1
LOOKUP_TABLE default
 40.299 38.1324 33.1236 41.6716 87.3557 32.3342 51.6444 99.3394 4.78154 10.8219 14.2316 -2.78964 6.46531 -0.137438 2.84303 5.50269 18.3172 24.3649 9.53188 -4.75927 9.72305 24.4095 20.4454 19.3551 24.7036 17.2267 12.803 19.3833 9.17481

VECTORS RHS float
 0 0 0 0 0 0 0 0 0 0 0 0 0 0 0 0 0 0 0 0 0 0 0 0 0 0 0 0 0 0 0 0 0 0 0 0 0 0 0 0 0 0 0 0 0 0 0 0 0.403582 0.267913 0 0 0 0 0.898667 0.278156 0 0.239822 0.00115331 0 0 0 0 0.271657 0.491137 0 0 0 0 0.634137 0.699844 0 0 0 0 0.300529 1.18867 0 0 0 0 0.00160599 0.323131 0 0 0 0

VECTORS U float
 -3.22358e-05 0.000138199 0 -5.17942e-05 0.000160238 0 -7.76525e-05 0.000205021 0 -7.69581e-05 5.41189e-05 0 -8.71082e-05 9.89398e-05 0 -9.99845e-05 5.63608e-21 0 -0.00010367 -2.0189e-20 0 -8.96191e-05 5.75158e-20 0 -4.34861e-05 0.000409709 0 2.97934e-06 0.000388604 0 3.75559e-05 0.000371589 0 -1.9852e-05 0.00050346 0 3.21672e-05 0.000491309 0 1.1165e-20 0.00053898 0 2.87202e-20 0.000540618 0 -3.38786e-20 0.000538816 0 7.12285e-05 5.66449e-05 0 1.20985e-05 0.000103026 0 -2.3406e-05 1.15415e-06 0 -6.57198e-05 -1.24564e-21 0 -8.36749e-05 6.96122e-21 0 0.000172696 0.000324229 0 0.000100058 0.000347173 0 0.000147336 0.000176938 0 1.34769e-05 0.000249593 0 0.000117451 0.000476406 0 -5.36205e-20 0.000536352 0 -1.96549e-19 0.000536656 0 -6.05219e-05 0.000311408 0
