# vtk DataFile Version 2.0
Exported by GetFEM
ASCII
DATASET UNSTRUCTURED_GRID
POINTS 12 float
 2 0 0
 2.417 0 0
 1.78302 0.453 0
 2.12969 0.748564 0
 0 1.583 0
 0 1 0
 1.36939 1.30442 0
 1.165 0.812831 0
 3.25 0 0
 2.83277 1.348 0
 1.783 2.29921 0
 0 2.75 0

CELLS 12 48
 3 0 1 2
 3 3 2 1
 3 4 5 6
 3 7 6 5
 3 1 8 3
 3 9 3 8
 3 10 6 9
 3 6 3 9
 3 6 10 4
 3 10 11 4
 3 2 3 7
 3 6 7 3

CELL_TYPES 12
 5
 5
 5
 5
 5
 5
 5
 5
 5
 5
 5
 5

POINT_DATA 12


SCALARS sigmayy float 1
LOOKUP_TABLE default
 0.634522 0.341864 0.305802 0.141455 0.126514 0.0751352 0.141455 0.141455 0.126646 0.289732 0.126514 0.126514

VECTORS RHS float
 0 0 0 0 0 0 0 0 0 0 0 0 0 0 0 0 0 0 0 0 0 0 0 0 0.0674 0.0208617 0 0.11496 0.07335 0 0.0701 0.141638 0 0.0225397 0.08915 0

VECTORS U float
 7.37731e-06 2.71052e-21 0 5.78007e-06 -4.78734e-22 0 5.06786e-06 1.09115e-05 0 6.65213e-06 8.86409e-06 0 3.40549e-21 3.15503e-05 0 1.6671e-21 3.18094e-05 0 7.36308e-06 2.20482e-05 0 4.26904e-06 2.31573e-05 0 6.26927e-06 0 0 1.20362e-05 6.63731e-06 0 1.30655e-05 2.23586e-05 0 -5.77432e-21 3.3108e-05 0
