# vtk DataFile Version 2.0
Exported by GetFEM
ASCII
DATASET UNSTRUCTURED_GRID
POINTS 12 float
 2.12969 0.748564 0
 1.78302 0.453 0
 2.417 0 0
 2 0 0
 1.165 0.812831 0
 1.36939 1.30442 0
 0 1 0
 0 1.583 0
 2.83277 1.348 0
 3.25 0 0
 1.783 2.29921 0
 0 2.75 0

CELLS 6 30
 4 0 1 3 2
 4 4 5 7 6
 4 8 0 2 9
 4 10 5 0 8
 4 5 10 11 7
 4 5 4 1 0

CELL_TYPES 6
 9
 9
 9
 9
 9
 9

POINT_DATA 12


SCALARS sigmayy float 1
LOOKUP_TABLE default
 20.9005 29.0208 44.2187 91.7658 19.2059 14.4665 2.75584 9.19981 23.0231 15.2918 16.1154 14.1913

VECTORS RHS float
 0 0 0 0 0 0 0 0 0 0 0 0 0 0 0 0 0 0 0 0 0 0 0 0 1.1496 0.7335 0 0.674 0.208617 0 0.701 1.41638 0 0.225397 0.8915 0

VECTORS U float
 3.4557e-05 0.000110553 0 1.19052e-05 0.000152916 0 -5.7822e-06 3.24557e-21 0 6.81731e-06 -6.14734e-21 0 1.32e-05 0.000309867 0 6.32407e-05 0.000287398 0 -4.69369e-20 0.000405242 0 -1.76504e-20 0.000408095 0 0.000101308 6.11463e-05 0 1.11913e-05 -6.63416e-21 0 0.000155801 0.000266484 0 1.02232e-19 0.000422975 0
