# vtk DataFile Version 2.0
Exported by GetFEM
ASCII
DATASET UNSTRUCTURED_GRID
POINTS 29 float
 2.12969 0.748564 0
 1.95635 0.600782 0
 1.78302 0.453 0
 2.34407 0.385927 0
 1.945 0.232905 0
 2.417 0 0
 2.2085 0 0
 2 0 0
 1.165 0.812831 0
 1.2672 1.05862 0
 1.36939 1.30442 0
 0.611832 0.952058 0
 0.716965 1.51175 0
 0 1 0
 0 1.2915 0
 0 1.583 0
 2.83277 1.348 0
 2.48123 1.04828 0
 3.14396 0.696732 0
 3.25 0 0
 2.8335 0 0
 1.783 2.29921 0
 1.5762 1.80181 0
 2.37534 1.87691 0
 1.80027 1.05625 0
 0.930446 2.63489 0
 0 2.1665 0
 0 2.75 0
 1.5173 0.651501 0

CELLS 6 54
 8 0 2 7 5 1 4 6 3
 8 8 10 15 13 9 12 14 11
 8 16 0 5 19 17 3 20 18
 8 21 10 0 16 22 24 17 23
 8 10 21 27 15 22 25 26 12
 8 10 8 2 0 9 28 1 24

CELL_TYPES 6
 23
 23
 23
 23
 23
 23

POINT_DATA 29


SCALARS sigmayy float 1
LOOKUP_TABLE default
 40.299 38.1324 33.1236 41.6716 87.3557 32.3342 51.6444 99.3394 4.78154 10.8219 14.2316 -2.78964 6.46531 -0.137438 2.84303 5.50269 18.3172 24.3649 9.53188 -4.75927 9.72305 24.4095 20.4454 19.3551 24.7036 17.2267 12.803 19.3833 9.17481

VECTORS RHS float
 0 0 0 0 0 0 0 0 0 0 0 0 0 0 0 0 0 0 0 0 0 0 0 0 0 0 0 0 0 0 0 0 0 0 0 0 0 0 0 0 0 0 0 0 0 0 0 0 4.03582 2.67913 0 0 0 0 8.98667 2.78156 0 2.39822 0.0115331 0 0 0 0 2.71657 4.91137 0 0 0 0 6.34137 6.99844 0 0 0 0 3.00529 11.8867 0 0 0 0 0.0160599 3.23131 0 0 0 0

VECTORS U float
 -0.000322358 0.00138199 0 -0.000517942 0.00160238 0 -0.000776525 0.00205021 0 -0.000769581 0.000541189 0 -0.000871082 0.000989398 0 -0.000999845 1.38734e-19 0 -0.0010367 -3.03531e-19 0 -0.000896191 6.64627e-19 0 -0.000434861 0.00409709 0 2.97934e-05 0.00388604 0 0.000375559 0.00371589 0 -0.00019852 0.00503461 0 0.000321672 0.00491309 0 4.46598e-20 0.0053898 0 2.29762e-19 0.00540618 0 -2.58746e-19 0.00538816 0 0.000712285 0.000566449 0 0.000120985 0.00103026 0 -0.00023406 1.15415e-05 0 -0.000657198 -1.79372e-19 0 -0.000836749 -1.71407e-19 0 0.00172696 0.00324229 0 0.00100058 0.00347173 0 0.00147336 0.00176938 0 0.000134769 0.00249593 0 0.00117451 0.00476406 0 9.53253e-20 0.00536352 0 -9.78177e-19 0.00536656 0 -0.000605219 0.00311408 0
