# vtk DataFile Version 2.0
Exported by GetFEM
ASCII
DATASET UNSTRUCTURED_GRID
POINTS 35 float
 2 0 0
 2.2085 0 0
 2.417 0 0
 1.945 0.232905 0
 2.10001 0.2265 0
 1.78302 0.453 0
 2.12969 0.748564 0
 1.95635 0.600782 0
 2.34407 0.385927 0
 0 1.583 0
 0 1.2915 0
 0 1 0
 0.716965 1.51175 0
 0.684695 1.15221 0
 1.36939 1.30442 0
 1.165 0.812831 0
 1.2672 1.05862 0
 0.611832 0.952058 0
 2.8335 0 0
 3.25 0 0
 2.68984 0.374282 0
 2.83277 1.348 0
 2.48123 1.04828 0
 3.14396 0.696732 0
 1.80027 1.05625 0
 2.10108 1.32621 0
 1.783 2.29921 0
 1.5762 1.80181 0
 2.37534 1.87691 0
 0.8915 1.9411 0
 0.930446 2.63489 0
 0 2.75 0
 0 2.1665 0
 1.5173 0.651501 0
 1.64734 0.780697 0

CELLS 12 84
 6 0 2 5 1 4 3
 6 6 5 2 7 4 8
 6 9 11 14 10 13 12
 6 15 14 11 16 13 17
 6 2 19 6 18 20 8
 6 21 6 19 22 20 23
 6 6 21 14 22 25 24
 6 26 14 21 27 25 28
 6 14 26 9 27 29 12
 6 26 31 9 30 32 29
 6 5 6 15 7 34 33
 6 14 15 6 16 34 24

CELL_TYPES 12
 22
 22
 22
 22
 22
 22
 22
 22
 22
 22
 22
 22

POINT_DATA 35


SCALARS sigmayy float 1
LOOKUP_TABLE default
 0.882333 0.599099 0.330151 0.937351 0.567319 0.266937 0.266555 0.351351 0.436874 0.044064 0.0249544 0.0312441 0.0788591 0.0535149 0.142342 0.113299 0.121013 -0.0584348 0.142885 -0.029997 0.191152 0.197426 0.280968 0.0974926 0.208056 0.199132 0.219551 0.202646 0.204708 0.12118 0.179269 0.180267 0.114409 0.0814364 0.20719

VECTORS RHS float
 0 0 0 0 0 0 0 0 0 0 0 0 0 0 0 0 0 0 0 0 0 0 0 0 0 0 0 0 0 0 0 0 0 0 0 0 0 0 0 0 0 0 0 0 0 0 0 0 0 0 0 0 0 0 0 0 0 0.0239822 0.000115331 0 0 0 0 0.0403582 0.0267913 0 0 0 0 0.0898667 0.0278156 0 0 0 0 0 0 0 0.0271657 0.0491137 0 0 0 0 0.0634137 0.0699844 0 0 0 0 0.0300529 0.118867 0 0.000160599 0.0323131 0 0 0 0 0 0 0 0 0 0

VECTORS U float
 -8.00776e-06 7.74811e-22 0 -9.41651e-06 -7.12716e-22 0 -9.46681e-06 -1.98586e-22 0 -8.50445e-06 9.35738e-06 0 -8.81149e-06 6.14613e-06 0 -7.06387e-06 2.04368e-05 0 -2.95235e-06 1.35019e-05 0 -4.87494e-06 1.62224e-05 0 -7.37928e-06 5.50434e-06 0 -1.06055e-21 5.32737e-05 0 -1.51162e-21 5.33765e-05 0 3.79324e-21 5.33735e-05 0 3.34849e-06 4.8426e-05 0 3.49858e-07 4.87611e-05 0 3.87025e-06 3.66717e-05 0 -4.07118e-06 4.06498e-05 0 3.50767e-07 3.84149e-05 0 -1.79792e-06 4.96282e-05 0 -8.20949e-06 1.33402e-21 0 -6.32189e-06 4.58362e-22 0 -6.78529e-06 2.57283e-06 0 7.17795e-06 5.63688e-06 0 1.45414e-06 1.01014e-05 0 -1.96247e-06 2.30824e-08 0 1.47107e-06 2.4575e-05 0 5.45136e-06 2.00783e-05 0 1.73727e-05 3.17962e-05 0 9.99803e-06 3.43254e-05 0 1.47311e-05 1.7569e-05 0 6.97145e-06 4.67337e-05 0 1.14904e-05 4.7202e-05 0 -3.58804e-21 5.2742e-05 0 2.78492e-21 5.28583e-05 0 -5.72241e-06 3.01874e-05 0 -2.95057e-06 2.68145e-05 0
