# vtk DataFile Version 2.0
Exported by GetFEM
ASCII
DATASET UNSTRUCTURED_GRID
POINTS 29 float
 2.12969 0.748564 0
 1.95635 0.600782 0
 1.78302 0.453 0
 2.34407 0.385927 0
 1.945 0.232905 0
 2.417 0 0
 2.2085 0 0
 2 0 0
 1.165 0.812831 0
 1.2672 1.05862 0
 1.36939 1.30442 0
 0.611832 0.952058 0
 0.716965 1.51175 0
 0 1 0
 0 1.2915 0
 0 1.583 0
 2.83277 1.348 0
 2.48123 1.04828 0
 3.14396 0.696732 0
 3.25 0 0
 2.8335 0 0
 1.783 2.29921 0
 1.5762 1.80181 0
 2.37534 1.87691 0
 1.80027 1.05625 0
 0.930446 2.63489 0
 0 2.1665 0
 0 2.75 0
 1.5173 0.651501 0

CELLS 6 54
 8 0 2 7 5 1 4 6 3
 8 8 10 15 13 9 12 14 11
 8 16 0 5 19 17 3 20 18
 8 21 10 0 16 22 24 17 23
 8 10 21 27 15 22 25 26 12
 8 10 8 2 0 9 28 1 24

CELL_TYPES 6
 23
 23
 23
 23
 23
 23

POINT_DATA 29


SCALARS sigmayy float 1
LOOKUP_TABLE default
 0.40299 0.381324 0.331236 0.416716 0.873557 0.323342 0.516444 0.993394 0.0478154 0.108219 0.142316 -0.0278964 0.0646531 -0.00137438 0.0284303 0.0550269 0.183172 0.243649 0.0953188 -0.0475927 0.0972305 0.244095 0.204454 0.193551 0.247036 0.172267 0.12803 0.193833 0.0917481

VECTORS RHS float
 0 0 0 0 0 0 0 0 0 0 0 0 0 0 0 0 0 0 0 0 0 0 0 0 0 0 0 0 0 0 0 0 0 0 0 0 0 0 0 0 0 0 0 0 0 0 0 0 0.0403582 0.0267913 0 0 0 0 0.0898667 0.0278156 0 0.0239822 0.000115331 0 0 0 0 0.0271657 0.0491137 0 0 0 0 0.0634137 0.0699844 0 0 0 0 0.0300529 0.118867 0 0 0 0 0.000160599 0.0323131 0 0 0 0

VECTORS U float
 -3.22358e-06 1.38199e-05 0 -5.17942e-06 1.60238e-05 0 -7.76525e-06 2.05021e-05 0 -7.69581e-06 5.41189e-06 0 -8.71082e-06 9.89398e-06 0 -9.99845e-06 0 0 -1.0367e-05 -3.87246e-21 0 -8.96191e-06 4.39357e-21 0 -4.34861e-06 4.09709e-05 0 2.97934e-07 3.88604e-05 0 3.75559e-06 3.71589e-05 0 -1.9852e-06 5.03461e-05 0 3.21672e-06 4.91309e-05 0 -2.44233e-21 5.3898e-05 0 0 5.40618e-05 0 -2.26725e-21 5.38816e-05 0 7.12285e-06 5.66449e-06 0 1.20985e-06 1.03026e-05 0 -2.3406e-06 1.15415e-07 0 -6.57198e-06 -4.82685e-21 0 -8.36749e-06 5.33153e-22 0 1.72696e-05 3.24229e-05 0 1.00058e-05 3.47173e-05 0 1.47336e-05 1.76938e-05 0 1.34769e-06 2.49593e-05 0 1.17451e-05 4.76406e-05 0 -1.48946e-21 5.36352e-05 0 3.10836e-21 5.36656e-05 0 -6.05219e-06 3.11408e-05 0
