# vtk DataFile Version 2.0
Exported by GetFEM
ASCII
DATASET UNSTRUCTURED_GRID
POINTS 12 float
 2 0 0
 2.417 0 0
 1.78302 0.453 0
 2.12969 0.748564 0
 0 1.583 0
 0 1 0
 1.36939 1.30442 0
 1.165 0.812831 0
 3.25 0 0
 2.83277 1.348 0
 1.783 2.29921 0
 0 2.75 0

CELLS 12 48
 3 0 1 2
 3 3 2 1
 3 4 5 6
 3 7 6 5
 3 1 8 3
 3 9 3 8
 3 10 6 9
 3 6 3 9
 3 6 10 4
 3 10 11 4
 3 2 3 7
 3 6 7 3

CELL_TYPES 12
 5
 5
 5
 5
 5
 5
 5
 5
 5
 5
 5
 5

POINT_DATA 12


SCALARS sigmayy float 1
LOOKUP_TABLE default
 63.4522 34.1864 30.5802 14.1455 12.6514 7.51352 14.1455 14.1455 12.6646 28.9732 12.6514 12.6514

VECTORS RHS float
 0 0 0 0 0 0 0 0 0 0 0 0 0 0 0 0 0 0 0 0 0 0 0 0 6.74 2.08617 0 11.496 7.335 0 7.01 14.1638 0 2.25397 8.915 0

VECTORS U float
 0.000737731 2.08168e-19 0 0.000578007 -1.32121e-20 0 0.000506786 0.00109115 0 0.000665213 0.000886409 0 2.17951e-19 0.00315503 0 0 0.00318094 0 0.000736308 0.00220482 0 0.000426904 0.00231573 0 0.000626927 -6.33184e-20 0 0.00120362 0.000663731 0 0.00130655 0.00223586 0 -4.92742e-19 0.0033108 0
