# vtk DataFile Version 2.0
Exported by GetFEM
ASCII
DATASET UNSTRUCTURED_GRID
POINTS 12 float
 2.12969 0.748564 0
 1.78302 0.453 0
 2.417 0 0
 2 0 0
 1.165 0.812831 0
 1.36939 1.30442 0
 0 1 0
 0 1.583 0
 2.83277 1.348 0
 3.25 0 0
 1.783 2.29921 0
 0 2.75 0

CELLS 6 30
 4 0 1 3 2
 4 4 5 7 6
 4 8 0 2 9
 4 10 5 0 8
 4 5 10 11 7
 4 5 4 1 0

CELL_TYPES 6
 9
 9
 9
 9
 9
 9

POINT_DATA 12


VECTORS Displacements float
 3.4557e-06 1.10553e-05 0 1.19052e-06 1.52916e-05 0 -5.7822e-07 5.90966e-22 0 6.81731e-07 6.64581e-22 0 1.32e-06 3.09867e-05 0 6.32407e-06 2.87398e-05 0 -6.85795e-21 4.05242e-05 0 2.26031e-21 4.08095e-05 0 1.01308e-05 6.11463e-06 0 1.11913e-06 -2.32292e-21 0 1.55801e-05 2.66484e-05 0 -2.60038e-21 4.22975e-05 0
