# vtk DataFile Version 2.0
Exported by GetFEM
ASCII
DATASET UNSTRUCTURED_GRID
POINTS 12 float
 2.12969 0.748564 0
 1.78302 0.453 0
 2.417 0 0
 2 0 0
 1.165 0.812831 0
 1.36939 1.30442 0
 0 1 0
 0 1.583 0
 2.83277 1.348 0
 3.25 0 0
 1.783 2.29921 0
 0 2.75 0

CELLS 6 30
 4 0 1 3 2
 4 4 5 7 6
 4 8 0 2 9
 4 10 5 0 8
 4 5 10 11 7
 4 5 4 1 0

CELL_TYPES 6
 9
 9
 9
 9
 9
 9

POINT_DATA 12


VECTORS Displacements float
 0.000217899 -1.08432e-05 0 0.000229549 -2.70835e-05 0 0.000270197 -2.01716e-20 0 0.000259853 1.8504e-20 0 0.000146815 -6.58458e-05 0 0.000119209 -6.71385e-05 0 -4.2454e-21 -9.38815e-05 0 -8.13711e-21 -0.000111934 0 0.000210367 1.79257e-05 0 0.000300702 4.32486e-20 0 8.14916e-05 -6.07029e-05 0 2.0803e-20 -0.000129721 0
