# vtk DataFile Version 2.0
Exported by GetFEM
ASCII
DATASET UNSTRUCTURED_GRID
POINTS 93 float
 2.12969 0.748564 0
 2.04302 0.674673 0
 1.95635 0.600782 0
 2.2502 0.577865 0
 2.04732 0.4621 0
 2.33896 0.39901 0
 2.23862 0.361214 0
 2.13828 0.323419 0
 1.86969 0.526891 0
 1.78302 0.453 0
 1.87159 0.352538 0
 2.03795 0.285623 0
 1.93761 0.247828 0
 2.39741 0.201135 0
 2.17339 0.161709 0
 2.417 0 0
 2.31275 0 0
 2.2085 0 0
 1.98434 0.124892 0
 2.10425 0 0
 2 0 0
 1.165 0.812831 0
 1.2161 0.935727 0
 1.2672 1.05862 0
 0.889271 0.895712 0
 0.956094 1.14698 0
 0.590531 0.955415 0
 0.617762 1.09538 0
 0.644993 1.23534 0
 1.31829 1.18152 0
 1.36939 1.30442 0
 1.04687 1.42681 0
 0.672224 1.3753 0
 0.699455 1.51527 0
 0.298613 0.988791 0
 0.322496 1.26342 0
 0 1 0
 0 1.14575 0
 0 1.2915 0
 0.35353 1.56597 0
 0 1.43725 0
 0 1.583 0
 2.83277 1.348 0
 2.657 1.19814 0
 2.48123 1.04828 0
 3.01119 1.03467 0
 2.61072 0.800089 0
 3.14145 0.704781 0
 2.94083 0.628338 0
 2.74021 0.551895 0
 2.30546 0.898423 0
 2.53958 0.475453 0
 3.22275 0.35537 0
 2.78685 0.275948 0
 3.25 0 0
 3.04175 0 0
 2.8335 0 0
 2.62525 0 0
 1.783 2.29921 0
 1.6796 2.05051 0
 1.5762 1.80181 0
 2.08828 2.10718 0
 1.82472 1.63992 0
 2.36495 1.88628 0
 2.2191 1.68215 0
 2.07325 1.47803 0
 1.47279 1.55311 0
 1.58563 1.19474 0
 1.92741 1.2739 0
 1.78156 1.06977 0
 2.61825 1.62921 0
 2.27724 1.26315 0
 1.97094 0.916288 0
 1.19301 1.93909 0
 0.754644 1.79582 0
 0.809833 2.07637 0
 1.3663 2.49518 0
 0.865021 2.35691 0
 0.92021 2.63746 0
 0.404916 2.12143 0
 0 1.87475 0
 0 2.1665 0
 0.464886 2.72172 0
 0 2.45825 0
 0 2.75 0
 1.45229 0.963072 0
 1.70947 0.968646 0
 1.63739 0.867519 0
 1.33727 0.743589 0
 1.5653 0.766392 0
 1.49321 0.665266 0
 1.79687 0.73415 0
 1.65181 0.563807 0

CELLS 24 216
 8 0 2 7 5 1 4 6 3
 8 2 9 12 7 8 10 11 4
 8 5 7 17 15 6 14 16 13
 8 7 12 20 17 11 18 19 14
 8 21 23 28 26 22 25 27 24
 8 23 30 33 28 29 31 32 25
 8 26 28 38 36 27 35 37 34
 8 28 33 41 38 32 39 40 35
 8 42 44 49 47 43 46 48 45
 8 44 0 5 49 50 3 51 46
 8 47 49 56 54 48 53 55 52
 8 49 5 15 56 51 13 57 53
 8 58 60 65 63 59 62 64 61
 8 60 30 69 65 66 67 68 62
 8 63 65 44 42 64 71 43 70
 8 65 69 0 44 68 72 50 71
 8 30 60 75 33 66 73 74 31
 8 60 58 78 75 59 76 77 73
 8 33 75 81 41 74 79 80 39
 8 75 78 84 81 77 82 83 79
 8 30 23 87 69 29 85 86 67
 8 23 21 90 87 22 88 89 85
 8 69 87 2 0 86 91 1 72
 8 87 90 9 2 89 92 8 91

CELL_TYPES 24
 23
 23
 23
 23
 23
 23
 23
 23
 23
 23
 23
 23
 23
 23
 23
 23
 23
 23
 23
 23
 23
 23
 23
 23

POINT_DATA 93


SCALARS sigmayy float 1
LOOKUP_TABLE default
 0.35683 0.376347 0.397412 0.385934 0.47149 0.373325 0.438779 0.574573 0.359199 0.332145 0.499553 0.625095 0.741482 0.402023 0.594492 0.362703 0.46096 0.628945 1.00912 0.770802 1.08155 0.0180773 0.0606746 0.086739 -0.00700331 0.0447691 -0.00833709 0.00815705 0.0245082 0.118364 0.143357 0.092304 0.0474592 0.0682664 -0.0158611 0.0113047 -0.014439 -0.00189375 0.00894227 0.0443564 0.0288614 0.0465062 0.148318 0.189349 0.255657 0.101851 0.231842 0.0221292 0.111109 0.198335 0.293315 0.273987 0.0256737 0.189486 -0.0223767 0.0687676 0.16584 0.249722 0.211899 0.197884 0.190388 0.198261 0.20919 0.190736 0.211293 0.239149 0.171647 0.180964 0.239097 0.245207 0.172624 0.243506 0.289866 0.153728 0.102571 0.133003 0.188611 0.161904 0.191951 0.115254 0.0808928 0.113503 0.172907 0.147221 0.180065 0.128299 0.219719 0.196247 0.0364067 0.156186 0.0864987 0.273212 0.160481

VECTORS RHS float
 0 0 0 0 0 0 0 0 0 0 0 0 0 0 0 0 0 0 0 0 0 0 0 0 0 0 0 0 0 0 0 0 0 0 0 0 0 0 0 0 0 0 0 0 0 0 0 0 0 0 0 0 0 0 0 0 0 0 0 0 0 0 0 0 0 0 0 0 0 0 0 0 0 0 0 0 0 0 0 0 0 0 0 0 0 0 0 0 0 0 0 0 0 0 0 0 0 0 0 0 0 0 0 0 0 0 0 0 0 0 0 0 0 0 0 0 0 0 0 0 0 0 0 0 0 0 0.0199444 0.0132546 0 0 0 0 0 0 0 0.0428813 0.0205793 0 0 0 0 0.0228197 0.00714976 0 0 0 0 0 0 0 0 0 0 0 0 0 0.0469854 0.00723634 0 0 0 0 0.011945 7.61767e-06 0 0 0 0 0 0 0 0 0 0 0.0133471 0.0240526 0 0 0 0 0 0 0 0.0275283 0.0387965 0 0 0 0 0.0160112 0.0178353 0 0 0 0 0 0 0 0 0 0 0 0 0 0 0 0 0 0 0 0.0358855 0.0311878 0 0 0 0 0 0 0 0 0 0 0 0 0 0 0 0 0.0225506 0.0575193 0 0 0 0 0.00758947 0.0303779 0 0 0 0 0 0 0 0 0 0 0.00750235 0.0613474 0 0 0 0 9.69933e-06 0.0156555 0 0 0 0 0 0 0 0 0 0 0 0 0 0 0 0 0 0 0 0 0 0 0 0 0

VECTORS U float
 -3.68313e-06 1.40637e-05 0 -4.70522e-06 1.51272e-05 0 -5.77065e-06 1.65247e-05 0 -6.22958e-06 9.43072e-06 0 -7.66043e-06 1.19097e-05 0 -8.49797e-06 5.70667e-06 0 -8.96639e-06 6.42649e-06 0 -9.32636e-06 7.40699e-06 0 -6.93863e-06 1.83898e-05 0 -8.4574e-06 2.10104e-05 0 -9.12729e-06 1.60313e-05 0 -9.56064e-06 8.77507e-06 0 -9.6328e-06 1.10807e-05 0 -1.0157e-05 2.59178e-06 0 -1.06459e-05 3.58873e-06 0 -1.07686e-05 5.57156e-22 0 -1.10367e-05 -2.04477e-21 0 -1.11281e-05 -2.80633e-22 0 -1.00433e-05 5.49277e-06 0 -1.09636e-05 7.00501e-22 0 -1.00977e-05 -2.22024e-21 0 -4.6426e-06 4.1779e-05 0 -2.15529e-06 4.06025e-05 0 -2.73416e-08 3.95465e-05 0 -3.34488e-06 4.73846e-05 0 4.36265e-07 4.62533e-05 0 -2.11564e-06 5.16134e-05 0 -6.00848e-07 5.13547e-05 0 7.441e-07 5.10393e-05 0 1.84781e-06 3.86302e-05 0 3.54118e-06 3.78426e-05 0 3.8063e-06 4.48981e-05 0 1.9559e-06 5.07246e-05 0 3.06501e-06 5.0415e-05 0 -1.03891e-06 5.40785e-05 0 3.99778e-07 5.40075e-05 0 -1.44218e-20 5.49066e-05 0 1.64463e-21 5.49953e-05 0 -2.91607e-21 5.49886e-05 0 1.70764e-06 5.37108e-05 0 -2.40587e-21 5.49361e-05 0 -1.7083e-21 5.48522e-05 0 6.83898e-06 5.7445e-06 0 3.62687e-06 8.33588e-06 0 8.83213e-07 1.04187e-05 0 1.70905e-06 1.84859e-06 0 -2.9281e-06 6.39736e-06 0 -2.87986e-06 -2.18346e-07 0 -4.58999e-06 1.69937e-06 0 -6.08198e-06 3.20121e-06 0 -1.52039e-06 1.22272e-05 0 -7.38028e-06 4.47852e-06 0 -6.16163e-06 -5.69229e-07 0 -8.49347e-06 1.36416e-06 0 -7.3589e-06 1.27129e-21 0 -8.3381e-06 -1.37218e-21 0 -9.25357e-06 4.40325e-22 0 -1.00647e-05 3.93941e-22 0 1.74643e-05 3.29885e-05 0 1.35277e-05 3.42515e-05 0 1.0015e-05 3.5393e-05 0 1.69829e-05 2.55115e-05 0 9.02532e-06 2.90564e-05 0 1.49735e-05 1.81542e-05 0 1.08971e-05 2.04014e-05 0 7.35869e-06 2.233e-05 0 6.77345e-06 3.65298e-05 0 2.65661e-06 3.20601e-05 0 4.18472e-06 2.41374e-05 0 1.16322e-06 2.61322e-05 0 1.13781e-05 1.13155e-05 0 4.2654e-06 1.61789e-05 0 -1.0465e-06 1.97862e-05 0 9.15949e-06 4.33671e-05 0 5.16205e-06 4.98663e-05 0 7.21471e-06 4.94132e-05 0 1.57206e-05 4.16907e-05 0 9.39106e-06 4.90266e-05 0 1.179e-05 4.86727e-05 0 3.80505e-06 5.32723e-05 0 3.20456e-21 5.46957e-05 0 -2.19157e-21 5.45837e-05 0 6.30484e-06 5.30639e-05 0 -2.96032e-21 5.4553e-05 0 -5.83016e-21 5.45899e-05 0 -1.01491e-06 3.4509e-05 0 -3.8132e-07 2.73091e-05 0 -2.09194e-06 2.87488e-05 0 -5.57845e-06 3.73862e-05 0 -4.06555e-06 3.05106e-05 0 -6.49512e-06 3.26352e-05 0 -3.90122e-06 2.28623e-05 0 -7.53245e-06 2.68913e-05 0
