# vtk DataFile Version 2.0
Exported by GetFEM
ASCII
DATASET UNSTRUCTURED_GRID
POINTS 35 float
 2.12969 0.748564 0
 1.95635 0.600782 0
 2.33896 0.39901 0
 2.13828 0.323419 0
 1.78302 0.453 0
 1.93761 0.247828 0
 2.417 0 0
 2.2085 0 0
 2 0 0
 1.165 0.812831 0
 1.2672 1.05862 0
 0.590531 0.955415 0
 0.644993 1.23534 0
 1.36939 1.30442 0
 0.699455 1.51527 0
 0 1 0
 0 1.2915 0
 0 1.583 0
 2.83277 1.348 0
 2.48123 1.04828 0
 3.14145 0.704781 0
 2.74021 0.551895 0
 3.25 0 0
 2.8335 0 0
 1.783 2.29921 0
 1.5762 1.80181 0
 2.36495 1.88628 0
 2.07325 1.47803 0
 1.78156 1.06977 0
 0.809833 2.07637 0
 0.92021 2.63746 0
 0 2.1665 0
 0 2.75 0
 1.63739 0.867519 0
 1.49321 0.665266 0

CELLS 24 120
 4 0 1 3 2
 4 1 4 5 3
 4 2 3 7 6
 4 3 5 8 7
 4 9 10 12 11
 4 10 13 14 12
 4 11 12 16 15
 4 12 14 17 16
 4 18 19 21 20
 4 19 0 2 21
 4 20 21 23 22
 4 21 2 6 23
 4 24 25 27 26
 4 25 13 28 27
 4 26 27 19 18
 4 27 28 0 19
 4 13 25 29 14
 4 25 24 30 29
 4 14 29 31 17
 4 29 30 32 31
 4 13 10 33 28
 4 10 9 34 33
 4 28 33 1 0
 4 33 34 4 1

CELL_TYPES 24
 9
 9
 9
 9
 9
 9
 9
 9
 9
 9
 9
 9
 9
 9
 9
 9
 9
 9
 9
 9
 9
 9
 9
 9

POINT_DATA 35


SCALARS sigmayy float 1
LOOKUP_TABLE default
 0.308068 0.229765 0.361083 0.436199 0.298692 0.918327 0.413676 0.520473 1.05422 0.103206 0.12481 -0.0371168 0.0135581 0.141413 0.0636179 -0.012765 0.0191623 0.0584806 0.208313 0.268702 0.027678 0.165417 0.0496503 0.198466 0.195274 0.16702 0.163998 0.185281 0.201608 0.127495 0.169464 0.121258 0.163334 0.190313 0.245745

VECTORS RHS float
 0 0 0 0 0 0 0 0 0 0 0 0 0 0 0 0 0 0 0 0 0 0 0 0 0 0 0 0 0 0 0 0 0 0 0 0 0 0 0 0 0 0 0 0 0 0 0 0 0 0 0 0 0 0 0.059075 0.0388253 0 0 0 0 0.0674 0.0208617 0 0 0 0 0.035239 0.00542725 0 0 0 0 0.0375591 0.0722369 0 0 0 0 0.0475603 0.0524883 0 0 0 0 0 0 0 0 0 0 0.0225397 0.08915 0 0 0 0 0.00562676 0.0460105 0 0 0 0 0 0 0

VECTORS U float
 -1.37292e-06 1.30362e-05 0 -3.09832e-06 1.51359e-05 0 -5.49634e-06 5.33411e-06 0 -6.13226e-06 6.7299e-06 0 -5.36788e-06 1.90988e-05 0 -6.13078e-06 9.83612e-06 0 -7.42608e-06 7.87252e-22 0 -7.64045e-06 -6.21205e-22 0 -6.47416e-06 3.92906e-22 0 -2.70016e-06 3.82819e-05 0 1.34073e-06 3.63706e-05 0 -1.23483e-06 4.73001e-05 0 1.34477e-06 4.68166e-05 0 4.48577e-06 3.49053e-05 0 3.41289e-06 4.63195e-05 0 -3.32877e-21 5.03147e-05 0 0 5.04443e-05 0 2.63764e-21 5.03814e-05 0 7.91421e-06 5.80173e-06 0 2.5896e-06 9.92005e-06 0 -6.78684e-07 1.28818e-07 0 -3.43846e-06 3.17641e-06 0 -4.66739e-06 7.43869e-22 0 -6.19662e-06 -5.41818e-22 0 1.68759e-05 3.09033e-05 0 1.01973e-05 3.28637e-05 0 1.50144e-05 1.72881e-05 0 8.1278e-06 2.0875e-05 0 2.68421e-06 2.41004e-05 0 7.09162e-06 4.56392e-05 0 1.1254e-05 4.52763e-05 0 -3.7092e-21 5.03683e-05 0 1.5569e-20 5.06813e-05 0 -1.30422e-07 2.63942e-05 0 -3.9953e-06 2.98884e-05 0
