# vtk DataFile Version 2.0
Exported by GetFEM
ASCII
DATASET UNSTRUCTURED_GRID
POINTS 35 float
 2.12969 0.748564 0
 1.95635 0.600782 0
 2.33896 0.39901 0
 2.13828 0.323419 0
 1.78302 0.453 0
 1.93761 0.247828 0
 2.417 0 0
 2.2085 0 0
 2 0 0
 1.165 0.812831 0
 1.2672 1.05862 0
 0.590531 0.955415 0
 0.644993 1.23534 0
 1.36939 1.30442 0
 0.699455 1.51527 0
 0 1 0
 0 1.2915 0
 0 1.583 0
 2.83277 1.348 0
 2.48123 1.04828 0
 3.14145 0.704781 0
 2.74021 0.551895 0
 3.25 0 0
 2.8335 0 0
 1.783 2.29921 0
 1.5762 1.80181 0
 2.36495 1.88628 0
 2.07325 1.47803 0
 1.78156 1.06977 0
 0.809833 2.07637 0
 0.92021 2.63746 0
 0 2.1665 0
 0 2.75 0
 1.63739 0.867519 0
 1.49321 0.665266 0

CELLS 24 120
 4 0 1 3 2
 4 1 4 5 3
 4 2 3 7 6
 4 3 5 8 7
 4 9 10 12 11
 4 10 13 14 12
 4 11 12 16 15
 4 12 14 17 16
 4 18 19 21 20
 4 19 0 2 21
 4 20 21 23 22
 4 21 2 6 23
 4 24 25 27 26
 4 25 13 28 27
 4 26 27 19 18
 4 27 28 0 19
 4 13 25 29 14
 4 25 24 30 29
 4 14 29 31 17
 4 29 30 32 31
 4 13 10 33 28
 4 10 9 34 33
 4 28 33 1 0
 4 33 34 4 1

CELL_TYPES 24
 9
 9
 9
 9
 9
 9
 9
 9
 9
 9
 9
 9
 9
 9
 9
 9
 9
 9
 9
 9
 9
 9
 9
 9

POINT_DATA 35


SCALARS sigmayy float 1
LOOKUP_TABLE default
 3.08068 2.29765 3.61083 4.36199 2.98692 9.18327 4.13676 5.20473 10.5422 1.03206 1.2481 -0.371168 0.135581 1.41413 0.636179 -0.12765 0.191623 0.584806 2.08313 2.68702 0.27678 1.65417 0.496503 1.98466 1.95274 1.6702 1.63998 1.85281 2.01608 1.27495 1.69464 1.21258 1.63334 1.90313 2.45745

VECTORS RHS float
 0 0 0 0 0 0 0 0 0 0 0 0 0 0 0 0 0 0 0 0 0 0 0 0 0 0 0 0 0 0 0 0 0 0 0 0 0 0 0 0 0 0 0 0 0 0 0 0 0 0 0 0 0 0 0.59075 0.388253 0 0 0 0 0.674 0.208617 0 0 0 0 0.35239 0.0542725 0 0 0 0 0.375591 0.722369 0 0 0 0 0.475603 0.524883 0 0 0 0 0 0 0 0 0 0 0.225397 0.8915 0 0 0 0 0.0562676 0.460105 0 0 0 0 0 0 0

VECTORS U float
 -1.37292e-05 0.000130362 0 -3.09832e-05 0.000151359 0 -5.49634e-05 5.33411e-05 0 -6.13226e-05 6.72989e-05 0 -5.36788e-05 0.000190988 0 -6.13078e-05 9.83612e-05 0 -7.42608e-05 1.09524e-21 0 -7.64045e-05 -6.80056e-21 0 -6.47416e-05 1.57163e-20 0 -2.70016e-05 0.000382819 0 1.34073e-05 0.000363706 0 -1.23483e-05 0.000473001 0 1.34477e-05 0.000468166 0 4.48577e-05 0.000349053 0 3.41289e-05 0.000463195 0 -7.98906e-20 0.000503147 0 0 0.000504443 0 2.63764e-20 0.000503814 0 7.91421e-05 5.80173e-05 0 2.5896e-05 9.92005e-05 0 -6.78684e-06 1.28818e-06 0 -3.43846e-05 3.17641e-05 0 -4.66739e-05 1.19019e-20 0 -6.19662e-05 -2.60073e-21 0 0.000168759 0.000309033 0 0.000101973 0.000328637 0 0.000150144 0.000172881 0 8.1278e-05 0.00020875 0 2.68421e-05 0.000241004 0 7.09162e-05 0.000456392 0 0.00011254 0.000452763 0 -3.49101e-20 0.000503683 0 9.34138e-20 0.000506813 0 -1.30422e-06 0.000263942 0 -3.9953e-05 0.000298884 0
