# vtk DataFile Version 2.0
Exported by GetFEM
ASCII
DATASET UNSTRUCTURED_GRID
POINTS 35 float
 2.12969 0.748564 0
 1.95635 0.600782 0
 2.33896 0.39901 0
 2.13828 0.323419 0
 1.78302 0.453 0
 1.93761 0.247828 0
 2.417 0 0
 2.2085 0 0
 2 0 0
 1.165 0.812831 0
 1.2672 1.05862 0
 0.590531 0.955415 0
 0.644993 1.23534 0
 1.36939 1.30442 0
 0.699455 1.51527 0
 0 1 0
 0 1.2915 0
 0 1.583 0
 2.83277 1.348 0
 2.48123 1.04828 0
 3.14145 0.704781 0
 2.74021 0.551895 0
 3.25 0 0
 2.8335 0 0
 1.783 2.29921 0
 1.5762 1.80181 0
 2.36495 1.88628 0
 2.07325 1.47803 0
 1.78156 1.06977 0
 0.809833 2.07637 0
 0.92021 2.63746 0
 0 2.1665 0
 0 2.75 0
 1.63739 0.867519 0
 1.49321 0.665266 0

CELLS 24 120
 4 0 1 3 2
 4 1 4 5 3
 4 2 3 7 6
 4 3 5 8 7
 4 9 10 12 11
 4 10 13 14 12
 4 11 12 16 15
 4 12 14 17 16
 4 18 19 21 20
 4 19 0 2 21
 4 20 21 23 22
 4 21 2 6 23
 4 24 25 27 26
 4 25 13 28 27
 4 26 27 19 18
 4 27 28 0 19
 4 13 25 29 14
 4 25 24 30 29
 4 14 29 31 17
 4 29 30 32 31
 4 13 10 33 28
 4 10 9 34 33
 4 28 33 1 0
 4 33 34 4 1

CELL_TYPES 24
 9
 9
 9
 9
 9
 9
 9
 9
 9
 9
 9
 9
 9
 9
 9
 9
 9
 9
 9
 9
 9
 9
 9
 9

POINT_DATA 35


SCALARS sigmayy float 1
LOOKUP_TABLE default
 30.8068 22.9765 36.1082 43.6199 29.8692 91.8327 41.3676 52.0473 105.422 10.3206 12.481 -3.71168 1.35581 14.1413 6.36179 -1.2765 1.91623 5.84806 20.8313 26.8702 2.7678 16.5417 4.96503 19.8466 19.5274 16.702 16.3998 18.5281 20.1608 12.7495 16.9464 12.1258 16.3334 19.0313 24.5745

VECTORS RHS float
 0 0 0 0 0 0 0 0 0 0 0 0 0 0 0 0 0 0 0 0 0 0 0 0 0 0 0 0 0 0 0 0 0 0 0 0 0 0 0 0 0 0 0 0 0 0 0 0 0 0 0 0 0 0 5.9075 3.88253 0 0 0 0 6.74 2.08617 0 0 0 0 3.52391 0.542725 0 0 0 0 3.75591 7.22369 0 0 0 0 4.75603 5.24883 0 0 0 0 0 0 0 0 0 0 2.25397 8.915 0 0 0 0 0.562676 4.60105 0 0 0 0 0 0 0

VECTORS U float
 -0.000137292 0.00130362 0 -0.000309832 0.00151359 0 -0.000549634 0.000533411 0 -0.000613226 0.00067299 0 -0.000536788 0.00190988 0 -0.000613078 0.000983612 0 -0.000742608 4.29909e-20 0 -0.000764045 -7.53293e-20 0 -0.000647416 4.02336e-19 0 -0.000270016 0.00382819 0 0.000134073 0.00363706 0 -0.000123483 0.00473001 0 0.000134477 0.00468166 0 0.000448577 0.00349053 0 0.000341289 0.00463195 0 4.26083e-19 0.00503147 0 -8.79172e-20 0.00504443 0 1.68809e-19 0.00503814 0 0.000791421 0.000580173 0 0.00025896 0.000992005 0 -6.78684e-05 1.28818e-05 0 -0.000343846 0.000317641 0 -0.000466739 9.52152e-20 0 -0.000619662 -2.77411e-20 0 0.00168759 0.00309033 0 0.00101973 0.00328637 0 0.00150144 0.00172881 0 0.00081278 0.0020875 0 0.000268421 0.00241004 0 0.000709162 0.00456392 0 0.0011254 0.00452763 0 -2.51353e-19 0.00503683 0 7.4731e-19 0.00506813 0 -1.30422e-05 0.00263942 0 -0.00039953 0.00298884 0
