# vtk DataFile Version 2.0
Exported by GetFEM
ASCII
DATASET UNSTRUCTURED_GRID
POINTS 117 float
 2.13828 0.323419 0
 2.23862 0.361214 0
 2.33896 0.39901 0
 2.04732 0.4621 0
 2.14766 0.499896 0
 1.95635 0.600782 0
 2.12969 0.748564 0
 2.04302 0.674673 0
 2.2502 0.577865 0
 1.93761 0.247828 0
 2.03795 0.285623 0
 1.87159 0.352538 0
 1.96065 0.388209 0
 1.78302 0.453 0
 1.86969 0.526891 0
 2.2085 0 0
 2.31275 0 0
 2.417 0 0
 2.17339 0.161709 0
 2.27764 0.161709 0
 2.39741 0.201135 0
 2 0 0
 2.10425 0 0
 1.98434 0.124892 0
 2.07305 0.123914 0
 0.644993 1.23534 0
 0.617762 1.09538 0
 0.590531 0.955415 0
 0.956094 1.14698 0
 0.928863 1.00702 0
 1.2672 1.05862 0
 1.165 0.812831 0
 1.2161 0.935727 0
 0.889271 0.895712 0
 0.699455 1.51527 0
 0.672224 1.3753 0
 1.04687 1.42681 0
 1.00719 1.26988 0
 1.36939 1.30442 0
 1.31829 1.18152 0
 0 1.2915 0
 0 1.14575 0
 0 1 0
 0.322496 1.26342 0
 0.322496 1.11767 0
 0.298613 0.988791 0
 0 1.583 0
 0 1.43725 0
 0.35353 1.56597 0
 0.349727 1.40338 0
 2.83277 1.348 0
 2.657 1.19814 0
 2.48123 1.04828 0
 3.01119 1.03467 0
 2.81134 0.876531 0
 3.14145 0.704781 0
 2.61072 0.800089 0
 2.74021 0.551895 0
 2.94083 0.628338 0
 2.30546 0.898423 0
 2.43495 0.65023 0
 2.53958 0.475453 0
 3.22275 0.35537 0
 2.9951 0.275948 0
 3.25 0 0
 2.78685 0.275948 0
 2.8335 0 0
 3.04175 0 0
 2.58623 0.199505 0
 2.62525 0 0
 1.783 2.29921 0
 1.6796 2.05051 0
 1.5762 1.80181 0
 2.08828 2.10718 0
 1.97057 1.84405 0
 2.36495 1.88628 0
 1.82472 1.63992 0
 2.07325 1.47803 0
 2.2191 1.68215 0
 1.47279 1.55311 0
 1.72132 1.39122 0
 1.58563 1.19474 0
 1.78156 1.06977 0
 1.92741 1.2739 0
 2.61825 1.62921 0
 2.45301 1.41301 0
 2.27724 1.26315 0
 2.13139 1.05903 0
 1.97094 0.916288 0
 1.13783 1.65854 0
 1.19301 1.93909 0
 0.809833 2.07637 0
 0.754644 1.79582 0
 1.29642 2.18779 0
 1.3663 2.49518 0
 0.92021 2.63746 0
 0.865021 2.35691 0
 0.404916 1.82968 0
 0.404916 2.12143 0
 0 2.1665 0
 0 1.87475 0
 0.460105 2.40198 0
 0.464886 2.72172 0
 0 2.75 0
 0 2.45825 0
 1.63739 0.867519 0
 1.70947 0.968646 0
 1.45229 0.963072 0
 1.52438 1.0642 0
 1.49321 0.665266 0
 1.5653 0.766392 0
 1.33727 0.743589 0
 1.40119 0.840175 0
 1.79687 0.73415 0
 1.88354 0.808041 0
 1.65181 0.563807 0
 1.72478 0.633024 0

CELLS 48 336
 6 0 2 5 1 4 3
 6 6 5 2 7 4 8
 6 9 0 13 10 12 11
 6 5 13 0 14 12 3
 6 15 17 0 16 19 18
 6 2 0 17 1 19 20
 6 21 15 9 22 24 23
 6 0 9 15 10 24 18
 6 25 27 30 26 29 28
 6 31 30 27 32 29 33
 6 34 25 38 35 37 36
 6 30 38 25 39 37 28
 6 40 42 25 41 44 43
 6 27 25 42 26 44 45
 6 46 40 34 47 49 48
 6 25 34 40 35 49 43
 6 50 52 55 51 54 53
 6 52 57 55 56 58 54
 6 52 6 57 59 60 56
 6 6 2 57 8 61 60
 6 55 57 64 58 63 62
 6 57 66 64 65 67 63
 6 57 2 66 61 68 65
 6 2 17 66 20 69 68
 6 70 72 75 71 74 73
 6 72 77 75 76 78 74
 6 72 38 77 79 80 76
 6 38 82 77 81 83 80
 6 75 77 50 78 85 84
 6 77 52 50 86 51 85
 6 77 82 52 83 87 86
 6 82 6 52 88 59 87
 6 38 72 34 79 89 36
 6 72 91 34 90 92 89
 6 72 70 91 71 93 90
 6 70 95 91 94 96 93
 6 34 91 46 92 97 48
 6 91 99 46 98 100 97
 6 91 95 99 96 101 98
 6 95 103 99 102 104 101
 6 105 82 30 106 108 107
 6 38 30 82 39 108 81
 6 109 105 31 110 112 111
 6 30 31 105 32 112 107
 6 5 6 105 7 114 113
 6 82 105 6 106 114 88
 6 13 5 109 14 116 115
 6 105 109 5 110 116 113

CELL_TYPES 48
 22
 22
 22
 22
 22
 22
 22
 22
 22
 22
 22
 22
 22
 22
 22
 22
 22
 22
 22
 22
 22
 22
 22
 22
 22
 22
 22
 22
 22
 22
 22
 22
 22
 22
 22
 22
 22
 22
 22
 22
 22
 22
 22
 22
 22
 22
 22
 22

POINT_DATA 117


SCALARS sigmayy float 1
LOOKUP_TABLE default
 5.40549 4.36708 3.75206 4.52715 4.16242 3.19215 3.14106 3.93539 3.9565 8.11082 6.75815 5.16002 4.79158 2.73151 3.47028 6.28271 4.91648 3.66193 5.8441 4.76819 4.02929 10.3563 7.82549 10.209 7.19676 0.215596 0.0771005 -0.144487 0.407708 0.328868 0.875822 0.444342 0.660082 -0.181093 0.652046 0.451193 0.941004 0.730496 1.41494 1.24179 -0.0400776 -0.0250889 -0.0619597 0.0877586 0.0405182 -0.209535 0.428102 0.297947 0.437865 0.323357 1.41356 1.96492 2.46917 1.06022 1.53897 0.311595 2.3558 2.00486 1.14556 3.0374 2.83248 2.82249 0.282032 1.02133 -0.0762691 1.91474 1.34252 0.781888 2.73871 2.51256 2.09541 1.99374 1.93471 2.01986 1.91719 1.88766 2.08757 2.33577 2.11422 1.74875 1.90935 1.74055 2.3761 2.44587 1.77921 1.92427 2.46198 2.5116 2.85694 1.23631 1.58315 1.35575 1.02048 1.68551 1.91336 1.82529 1.60474 0.797211 1.17203 1.13498 0.782788 1.45055 1.73767 1.76003 1.45023 1.96014 2.27428 1.18177 1.60973 1.4429 1.70152 0.150924 0.966034 2.57614 2.84731 1.46944 2.31753

VECTORS RHS float
 0 0 0 0 0 0 0 0 0 0 0 0 0 0 0 0 0 0 0 0 0 0 0 0 0 0 0 0 0 0 0 0 0 0 0 0 0 0 0 0 0 0 0 0 0 0 0 0 0 0 0 0 0 0 0 0 0 0 0 0 0 0 0 0 0 0 0 0 0 0 0 0 0 0 0 0 0 0 0 0 0 0 0 0 0 0 0 0 0 0 0 0 0 0 0 0 0 0 0 0 0 0 0 0 0 0 0 0 0 0 0 0 0 0 0 0 0 0 0 0 0 0 0 0 0 0 0 0 0 0 0 0 0 0 0 0 0 0 0 0 0 0 0 0 0 0 0 0 0 0 0.199444 0.132546 0 0 0 0 0 0 0 0.428813 0.205793 0 0 0 0 0.228197 0.0714976 0 0 0 0 0 0 0 0 0 0 0 0 0 0 0 0 0 0 0 0.469854 0.0723634 0 0 0 0 0.11945 7.61767e-05 0 0 0 0 0 0 0 0 0 0 0 0 0 0 0 0 0.133471 0.240526 0 0 0 0 0 0 0 0.275283 0.387965 0 0 0 0 0.160112 0.178353 0 0 0 0 0 0 0 0 0 0 0 0 0 0 0 0 0 0 0 0 0 0 0 0 0 0.358855 0.311878 0 0 0 0 0 0 0 0 0 0 0 0 0 0 0 0 0 0 0 0 0 0 0 0 0 0 0 0 0.225506 0.575193 0 0.0758947 0.303779 0 0 0 0 0 0 0 0 0 0 0 0 0 0 0 0 0 0 0 0.0750235 0.613474 0 9.69933e-05 0.156555 0 0 0 0 0 0 0 0 0 0 0 0 0 0 0 0 0 0 0 0 0 0 0 0 0 0 0 0 0 0 0 0 0 0 0 0 0 0 0 0

VECTORS U float
 -9.23897e-05 7.34722e-05 0 -8.88622e-05 6.41095e-05 0 -8.43392e-05 5.68888e-05 0 -7.59602e-05 0.000118788 0 -7.15312e-05 0.000102115 0 -5.68935e-05 0.000164472 0 -3.64218e-05 0.000139943 0 -4.6571e-05 0.000150875 0 -6.15672e-05 9.41805e-05 0 -9.44993e-05 0.00011064 0 -9.43192e-05 8.8129e-05 0 -9.06297e-05 0.000158469 0 -8.51143e-05 0.000131565 0 -8.31984e-05 0.000210267 0 -6.86254e-05 0.000183824 0 -0.000109965 2.2454e-22 0 -0.000109316 -7.76646e-23 0 -0.000106628 0 0 -0.000105161 3.61181e-05 0 -0.000104711 2.76326e-05 0 -0.000100372 2.61759e-05 0 -9.84831e-05 -8.10673e-21 0 -0.00010777 -1.12683e-21 0 -9.94962e-05 5.4036e-05 0 -0.000104884 3.88041e-05 0 7.63341e-06 0.000509379 0 -5.82858e-06 0.000512451 0 -2.11183e-05 0.000515173 0 4.58872e-06 0.000461105 0 -1.49483e-05 0.000465382 0 1.47936e-07 0.000394632 0 -4.60809e-05 0.000417185 0 -2.1182e-05 0.00040526 0 -3.2972e-05 0.000472297 0 3.08059e-05 0.000503104 0 1.96808e-05 0.000506174 0 3.8265e-05 0.000447648 0 2.04048e-05 0.000452854 0 3.56768e-05 0.000377512 0 1.86817e-05 0.000385496 0 -3.33361e-20 0.000548918 0 2.5711e-20 0.000548849 0 -2.33791e-19 0.000548085 0 4.11808e-06 0.000538769 0 -3.11752e-06 0.00053879 0 -1.02854e-05 0.000539551 0 -3.52975e-21 0.000547519 0 -1.58596e-21 0.000548286 0 1.72397e-05 0.000535738 0 1.08148e-05 0.000536632 0 6.85053e-05 5.74587e-05 0 3.66272e-05 8.30505e-05 0 9.15622e-06 0.000103927 0 1.75998e-05 1.85071e-05 0 -1.35943e-05 4.15678e-05 0 -2.80697e-05 -1.7689e-06 0 -2.86912e-05 6.38724e-05 0 -5.99645e-05 3.21352e-05 0 -4.51041e-05 1.69137e-05 0 -1.47633e-05 0.000121935 0 -5.15233e-05 7.45762e-05 0 -7.29879e-05 4.4623e-05 0 -6.07475e-05 -5.79036e-06 0 -7.59745e-05 4.69089e-06 0 -7.25129e-05 0 0 -8.40419e-05 1.36564e-05 0 -9.13639e-05 2.25797e-21 0 -8.24567e-05 -2.05478e-21 0 -9.5404e-05 1.69862e-05 0 -9.99862e-05 -5.36357e-21 0 0.000174538 0.000328788 0 0.000135166 0.000341542 0 0.000100131 0.000352878 0 0.000169683 0.000254519 0 0.000124003 0.000268653 0 0.000149579 0.000180969 0 9.02897e-05 0.00028985 0 7.36326e-05 0.000222551 0 0.000109016 0.000203384 0 6.76725e-05 0.000364471 0 5.50295e-05 0.000298573 0 2.68644e-05 0.00031961 0 1.19471e-05 0.000260385 0 4.19789e-05 0.000240772 0 0.000113875 0.00011297 0 7.02696e-05 0.00013612 0 4.29082e-05 0.000161455 0 1.0753e-05 0.000174457 0 -1.00751e-05 0.000197264 0 6.3722e-05 0.000435863 0 9.15128e-05 0.000432772 0 7.21257e-05 0.000492831 0 5.1559e-05 0.00049748 0 0.000121314 0.000421044 0 0.000156956 0.000416166 0 0.000117906 0.0004853 0 9.37774e-05 0.000489049 0 2.91696e-05 0.000531647 0 3.8018e-05 0.000531512 0 -4.06196e-21 0.000544454 0 -1.38972e-20 0.000545523 0 5.20626e-05 0.000528578 0 6.27855e-05 0.000529593 0 -4.9992e-20 0.000544321 0 2.89008e-21 0.00054414 0 -2.0353e-05 0.000286604 0 -3.53309e-06 0.000272316 0 -9.81316e-06 0.000344023 0 7.35479e-06 0.000328758 0 -6.44341e-05 0.000326274 0 -4.01799e-05 0.000304388 0 -5.52994e-05 0.000372551 0 -3.28902e-05 0.000355136 0 -3.87164e-05 0.000227721 0 -2.6409e-05 0.000209339 0 -7.46766e-05 0.000266853 0 -5.77051e-05 0.000243712 0
