# vtk DataFile Version 2.0
Exported by GetFEM
ASCII
DATASET UNSTRUCTURED_GRID
POINTS 117 float
 2.13828 0.323419 0
 2.23862 0.361214 0
 2.33896 0.39901 0
 2.04732 0.4621 0
 2.14766 0.499896 0
 1.95635 0.600782 0
 2.12969 0.748564 0
 2.04302 0.674673 0
 2.2502 0.577865 0
 1.93761 0.247828 0
 2.03795 0.285623 0
 1.87159 0.352538 0
 1.96065 0.388209 0
 1.78302 0.453 0
 1.86969 0.526891 0
 2.2085 0 0
 2.31275 0 0
 2.417 0 0
 2.17339 0.161709 0
 2.27764 0.161709 0
 2.39741 0.201135 0
 2 0 0
 2.10425 0 0
 1.98434 0.124892 0
 2.07305 0.123914 0
 0.644993 1.23534 0
 0.617762 1.09538 0
 0.590531 0.955415 0
 0.956094 1.14698 0
 0.928863 1.00702 0
 1.2672 1.05862 0
 1.165 0.812831 0
 1.2161 0.935727 0
 0.889271 0.895712 0
 0.699455 1.51527 0
 0.672224 1.3753 0
 1.04687 1.42681 0
 1.00719 1.26988 0
 1.36939 1.30442 0
 1.31829 1.18152 0
 0 1.2915 0
 0 1.14575 0
 0 1 0
 0.322496 1.26342 0
 0.322496 1.11767 0
 0.298613 0.988791 0
 0 1.583 0
 0 1.43725 0
 0.35353 1.56597 0
 0.349727 1.40338 0
 2.83277 1.348 0
 2.657 1.19814 0
 2.48123 1.04828 0
 3.01119 1.03467 0
 2.81134 0.876531 0
 3.14145 0.704781 0
 2.61072 0.800089 0
 2.74021 0.551895 0
 2.94083 0.628338 0
 2.30546 0.898423 0
 2.43495 0.65023 0
 2.53958 0.475453 0
 3.22275 0.35537 0
 2.9951 0.275948 0
 3.25 0 0
 2.78685 0.275948 0
 2.8335 0 0
 3.04175 0 0
 2.58623 0.199505 0
 2.62525 0 0
 1.783 2.29921 0
 1.6796 2.05051 0
 1.5762 1.80181 0
 2.08828 2.10718 0
 1.97057 1.84405 0
 2.36495 1.88628 0
 1.82472 1.63992 0
 2.07325 1.47803 0
 2.2191 1.68215 0
 1.47279 1.55311 0
 1.72132 1.39122 0
 1.58563 1.19474 0
 1.78156 1.06977 0
 1.92741 1.2739 0
 2.61825 1.62921 0
 2.45301 1.41301 0
 2.27724 1.26315 0
 2.13139 1.05903 0
 1.97094 0.916288 0
 1.13783 1.65854 0
 1.19301 1.93909 0
 0.809833 2.07637 0
 0.754644 1.79582 0
 1.29642 2.18779 0
 1.3663 2.49518 0
 0.92021 2.63746 0
 0.865021 2.35691 0
 0.404916 1.82968 0
 0.404916 2.12143 0
 0 2.1665 0
 0 1.87475 0
 0.460105 2.40198 0
 0.464886 2.72172 0
 0 2.75 0
 0 2.45825 0
 1.63739 0.867519 0
 1.70947 0.968646 0
 1.45229 0.963072 0
 1.52438 1.0642 0
 1.49321 0.665266 0
 1.5653 0.766392 0
 1.33727 0.743589 0
 1.40119 0.840175 0
 1.79687 0.73415 0
 1.88354 0.808041 0
 1.65181 0.563807 0
 1.72478 0.633024 0

CELLS 48 336
 6 0 2 5 1 4 3
 6 6 5 2 7 4 8
 6 9 0 13 10 12 11
 6 5 13 0 14 12 3
 6 15 17 0 16 19 18
 6 2 0 17 1 19 20
 6 21 15 9 22 24 23
 6 0 9 15 10 24 18
 6 25 27 30 26 29 28
 6 31 30 27 32 29 33
 6 34 25 38 35 37 36
 6 30 38 25 39 37 28
 6 40 42 25 41 44 43
 6 27 25 42 26 44 45
 6 46 40 34 47 49 48
 6 25 34 40 35 49 43
 6 50 52 55 51 54 53
 6 52 57 55 56 58 54
 6 52 6 57 59 60 56
 6 6 2 57 8 61 60
 6 55 57 64 58 63 62
 6 57 66 64 65 67 63
 6 57 2 66 61 68 65
 6 2 17 66 20 69 68
 6 70 72 75 71 74 73
 6 72 77 75 76 78 74
 6 72 38 77 79 80 76
 6 38 82 77 81 83 80
 6 75 77 50 78 85 84
 6 77 52 50 86 51 85
 6 77 82 52 83 87 86
 6 82 6 52 88 59 87
 6 38 72 34 79 89 36
 6 72 91 34 90 92 89
 6 72 70 91 71 93 90
 6 70 95 91 94 96 93
 6 34 91 46 92 97 48
 6 91 99 46 98 100 97
 6 91 95 99 96 101 98
 6 95 103 99 102 104 101
 6 105 82 30 106 108 107
 6 38 30 82 39 108 81
 6 109 105 31 110 112 111
 6 30 31 105 32 112 107
 6 5 6 105 7 114 113
 6 82 105 6 106 114 88
 6 13 5 109 14 116 115
 6 105 109 5 110 116 113

CELL_TYPES 48
 22
 22
 22
 22
 22
 22
 22
 22
 22
 22
 22
 22
 22
 22
 22
 22
 22
 22
 22
 22
 22
 22
 22
 22
 22
 22
 22
 22
 22
 22
 22
 22
 22
 22
 22
 22
 22
 22
 22
 22
 22
 22
 22
 22
 22
 22
 22
 22

POINT_DATA 117


SCALARS sigmayy float 1
LOOKUP_TABLE default
 0.540549 0.436708 0.375206 0.452715 0.416242 0.319215 0.314106 0.393539 0.39565 0.811082 0.675815 0.516002 0.479158 0.273151 0.347028 0.628271 0.491648 0.366193 0.58441 0.476819 0.402929 1.03563 0.782549 1.0209 0.719676 0.0215596 0.00771005 -0.0144487 0.0407708 0.0328868 0.0875822 0.0444342 0.0660082 -0.0181093 0.0652046 0.0451193 0.0941004 0.0730496 0.141494 0.124179 -0.00400776 -0.0025089 -0.00619597 0.00877586 0.00405182 -0.0209535 0.0428102 0.0297947 0.0437865 0.0323357 0.141356 0.196492 0.246917 0.106022 0.153897 0.0311595 0.23558 0.200486 0.114556 0.30374 0.283248 0.282249 0.0282032 0.102133 -0.00762691 0.191474 0.134252 0.0781888 0.273871 0.251256 0.209541 0.199374 0.193471 0.201986 0.191719 0.188766 0.208757 0.233577 0.211422 0.174875 0.190935 0.174055 0.23761 0.244587 0.177921 0.192428 0.246198 0.25116 0.285694 0.123631 0.158315 0.135575 0.102048 0.168551 0.191336 0.182529 0.160474 0.0797211 0.117203 0.113498 0.0782788 0.145055 0.173767 0.176003 0.145023 0.196014 0.227428 0.118177 0.160973 0.14429 0.170152 0.0150924 0.0966034 0.257614 0.284731 0.146944 0.231753

VECTORS RHS float
 0 0 0 0 0 0 0 0 0 0 0 0 0 0 0 0 0 0 0 0 0 0 0 0 0 0 0 0 0 0 0 0 0 0 0 0 0 0 0 0 0 0 0 0 0 0 0 0 0 0 0 0 0 0 0 0 0 0 0 0 0 0 0 0 0 0 0 0 0 0 0 0 0 0 0 0 0 0 0 0 0 0 0 0 0 0 0 0 0 0 0 0 0 0 0 0 0 0 0 0 0 0 0 0 0 0 0 0 0 0 0 0 0 0 0 0 0 0 0 0 0 0 0 0 0 0 0 0 0 0 0 0 0 0 0 0 0 0 0 0 0 0 0 0 0 0 0 0 0 0 0.0199444 0.0132546 0 0 0 0 0 0 0 0.0428813 0.0205793 0 0 0 0 0.0228197 0.00714976 0 0 0 0 0 0 0 0 0 0 0 0 0 0 0 0 0 0 0 0.0469854 0.00723634 0 0 0 0 0.011945 7.61767e-06 0 0 0 0 0 0 0 0 0 0 0 0 0 0 0 0 0.0133471 0.0240526 0 0 0 0 0 0 0 0.0275283 0.0387965 0 0 0 0 0.0160112 0.0178353 0 0 0 0 0 0 0 0 0 0 0 0 0 0 0 0 0 0 0 0 0 0 0 0 0 0.0358855 0.0311878 0 0 0 0 0 0 0 0 0 0 0 0 0 0 0 0 0 0 0 0 0 0 0 0 0 0 0 0 0.0225506 0.0575193 0 0.00758947 0.0303779 0 0 0 0 0 0 0 0 0 0 0 0 0 0 0 0 0 0 0 0.00750235 0.0613474 0 9.69933e-06 0.0156555 0 0 0 0 0 0 0 0 0 0 0 0 0 0 0 0 0 0 0 0 0 0 0 0 0 0 0 0 0 0 0 0 0 0 0 0 0 0 0 0

VECTORS U float
 -9.23896e-06 7.34722e-06 0 -8.88622e-06 6.41095e-06 0 -8.43392e-06 5.68888e-06 0 -7.59602e-06 1.18788e-05 0 -7.15312e-06 1.02115e-05 0 -5.68935e-06 1.64472e-05 0 -3.64218e-06 1.39943e-05 0 -4.6571e-06 1.50875e-05 0 -6.15672e-06 9.41805e-06 0 -9.44993e-06 1.1064e-05 0 -9.43192e-06 8.8129e-06 0 -9.06297e-06 1.58469e-05 0 -8.51143e-06 1.31565e-05 0 -8.31984e-06 2.10267e-05 0 -6.86254e-06 1.83824e-05 0 -1.09965e-05 -2.00482e-23 0 -1.09316e-05 1.11093e-22 0 -1.06628e-05 4.73717e-22 0 -1.05161e-05 3.61181e-06 0 -1.04711e-05 2.76326e-06 0 -1.00372e-05 2.61759e-06 0 -9.84831e-06 2.53335e-22 0 -1.0777e-05 -1.27492e-22 0 -9.94962e-06 5.4036e-06 0 -1.04884e-05 3.88041e-06 0 7.63341e-07 5.09379e-05 0 -5.82858e-07 5.12451e-05 0 -2.11183e-06 5.15173e-05 0 4.58872e-07 4.61105e-05 0 -1.49483e-06 4.65382e-05 0 1.47936e-08 3.94632e-05 0 -4.60809e-06 4.17185e-05 0 -2.1182e-06 4.0526e-05 0 -3.2972e-06 4.72297e-05 0 3.08059e-06 5.03104e-05 0 1.96808e-06 5.06174e-05 0 3.8265e-06 4.47648e-05 0 2.04048e-06 4.52854e-05 0 3.56768e-06 3.77512e-05 0 1.86817e-06 3.85496e-05 0 -3.3279e-21 5.48918e-05 0 -3.91423e-21 5.48849e-05 0 -1.94826e-20 5.48085e-05 0 4.11808e-07 5.38769e-05 0 -3.11752e-07 5.3879e-05 0 -1.02854e-06 5.39551e-05 0 -4.41219e-22 5.47519e-05 0 3.18023e-22 5.48286e-05 0 1.72397e-06 5.35738e-05 0 1.08148e-06 5.36632e-05 0 6.85053e-06 5.74587e-06 0 3.66272e-06 8.30505e-06 0 9.15622e-07 1.03927e-05 0 1.75998e-06 1.85071e-06 0 -1.35943e-06 4.15678e-06 0 -2.80697e-06 -1.7689e-07 0 -2.86912e-06 6.38724e-06 0 -5.99645e-06 3.21352e-06 0 -4.51041e-06 1.69137e-06 0 -1.47633e-06 1.21935e-05 0 -5.15233e-06 7.45762e-06 0 -7.29879e-06 4.4623e-06 0 -6.07475e-06 -5.79036e-07 0 -7.59745e-06 4.69089e-07 0 -7.25129e-06 -7.05104e-22 0 -8.40419e-06 1.36564e-06 0 -9.13639e-06 2.82246e-22 0 -8.24566e-06 -3.74651e-23 0 -9.5404e-06 1.69862e-06 0 -9.99862e-06 -9.71915e-22 0 1.74538e-05 3.28788e-05 0 1.35166e-05 3.41542e-05 0 1.00131e-05 3.52878e-05 0 1.69683e-05 2.54519e-05 0 1.24003e-05 2.68653e-05 0 1.49579e-05 1.80969e-05 0 9.02897e-06 2.8985e-05 0 7.36326e-06 2.22551e-05 0 1.09017e-05 2.03384e-05 0 6.76725e-06 3.64471e-05 0 5.50295e-06 2.98573e-05 0 2.68644e-06 3.1961e-05 0 1.19471e-06 2.60385e-05 0 4.19789e-06 2.40772e-05 0 1.13875e-05 1.1297e-05 0 7.02696e-06 1.3612e-05 0 4.29082e-06 1.61455e-05 0 1.0753e-06 1.74457e-05 0 -1.00751e-06 1.97264e-05 0 6.3722e-06 4.35863e-05 0 9.15128e-06 4.32772e-05 0 7.21257e-06 4.92831e-05 0 5.1559e-06 4.9748e-05 0 1.21314e-05 4.21044e-05 0 1.56956e-05 4.16166e-05 0 1.17906e-05 4.853e-05 0 9.37774e-06 4.89049e-05 0 2.91696e-06 5.31647e-05 0 3.8018e-06 5.31512e-05 0 -2.53872e-22 5.44454e-05 0 -8.68574e-22 5.45523e-05 0 5.20626e-06 5.28578e-05 0 6.27855e-06 5.29593e-05 0 3.15606e-22 5.44321e-05 0 7.74536e-22 5.4414e-05 0 -2.0353e-06 2.86604e-05 0 -3.53309e-07 2.72316e-05 0 -9.81316e-07 3.44023e-05 0 7.35479e-07 3.28758e-05 0 -6.44341e-06 3.26274e-05 0 -4.01799e-06 3.04388e-05 0 -5.52994e-06 3.72551e-05 0 -3.28902e-06 3.55136e-05 0 -3.87164e-06 2.27721e-05 0 -2.6409e-06 2.09339e-05 0 -7.46766e-06 2.66853e-05 0 -5.77051e-06 2.43712e-05 0
