# vtk DataFile Version 2.0
Exported by GetFEM
ASCII
DATASET UNSTRUCTURED_GRID
POINTS 35 float
 2.13828 0.323419 0
 2.33896 0.39901 0
 1.95635 0.600782 0
 2.12969 0.748564 0
 1.93761 0.247828 0
 1.78302 0.453 0
 2.2085 0 0
 2.417 0 0
 2 0 0
 0.644993 1.23534 0
 0.590531 0.955415 0
 1.2672 1.05862 0
 1.165 0.812831 0
 0.699455 1.51527 0
 1.36939 1.30442 0
 0 1.2915 0
 0 1 0
 0 1.583 0
 2.83277 1.348 0
 2.48123 1.04828 0
 3.14145 0.704781 0
 2.74021 0.551895 0
 3.25 0 0
 2.8335 0 0
 1.783 2.29921 0
 1.5762 1.80181 0
 2.36495 1.88628 0
 2.07325 1.47803 0
 1.78156 1.06977 0
 0.809833 2.07637 0
 0.92021 2.63746 0
 0 2.1665 0
 0 2.75 0
 1.63739 0.867519 0
 1.49321 0.665266 0

CELLS 48 192
 3 0 1 2
 3 3 2 1
 3 4 0 5
 3 2 5 0
 3 6 7 0
 3 1 0 7
 3 8 6 4
 3 0 4 6
 3 9 10 11
 3 12 11 10
 3 13 9 14
 3 11 14 9
 3 15 16 9
 3 10 9 16
 3 17 15 13
 3 9 13 15
 3 18 19 20
 3 19 21 20
 3 19 3 21
 3 3 1 21
 3 20 21 22
 3 21 23 22
 3 21 1 23
 3 1 7 23
 3 24 25 26
 3 25 27 26
 3 25 14 27
 3 14 28 27
 3 26 27 18
 3 27 19 18
 3 27 28 19
 3 28 3 19
 3 14 25 13
 3 25 29 13
 3 25 24 29
 3 24 30 29
 3 13 29 17
 3 29 31 17
 3 29 30 31
 3 30 32 31
 3 33 28 11
 3 14 11 28
 3 34 33 12
 3 11 12 33
 3 2 3 33
 3 28 33 3
 3 5 2 34
 3 33 34 2

CELL_TYPES 48
 5
 5
 5
 5
 5
 5
 5
 5
 5
 5
 5
 5
 5
 5
 5
 5
 5
 5
 5
 5
 5
 5
 5
 5
 5
 5
 5
 5
 5
 5
 5
 5
 5
 5
 5
 5
 5
 5
 5
 5
 5
 5
 5
 5
 5
 5
 5
 5

POINT_DATA 35


SCALARS sigmayy float 1
LOOKUP_TABLE default
 0.430211 0.375935 0.19528 0.203724 0.430211 0.323138 0.430211 0.375935 0.865291 0.033698 -0.013356 0.125248 0.125248 0.0851073 0.144181 0.033698 -0.013356 0.0895204 0.251998 0.342006 0.0568771 0.173334 0.197595 0.375935 0.172428 0.17546 0.17652 0.195751 0.203724 0.136564 0.139826 0.139826 0.139826 0.19528 0.19528

VECTORS RHS float
 0 0 0 0 0 0 0 0 0 0 0 0 0 0 0 0 0 0 0 0 0 0 0 0 0 0 0 0 0 0 0 0 0 0 0 0 0 0 0 0 0 0 0 0 0 0 0 0 0 0 0 0 0 0 0.059075 0.0388253 0 0 0 0 0.0674 0.0208617 0 0 0 0 0.035239 0.00542725 0 0 0 0 0.0375591 0.0722369 0 0 0 0 0.0475603 0.0524883 0 0 0 0 0 0 0 0 0 0 0.0225397 0.08915 0 0 0 0 0.00562676 0.0460105 0 0 0 0 0 0 0

VECTORS U float
 -2.10103e-06 6.1634e-06 0 -1.66623e-06 5.06695e-06 0 -1.5686e-07 1.33082e-05 0 1.30529e-06 1.17068e-05 0 -2.14131e-06 8.40253e-06 0 -1.90207e-06 1.61581e-05 0 -2.61724e-06 -5.8872e-23 0 -2.69387e-06 5.24182e-22 0 -1.01382e-06 -3.17614e-22 0 2.18062e-06 4.10775e-05 0 -1.81016e-08 4.15975e-05 0 2.91675e-06 3.16964e-05 0 -3.18886e-07 3.32397e-05 0 3.90794e-06 4.06401e-05 0 5.51084e-06 3.05907e-05 0 -2.6915e-21 4.47096e-05 0 9.16794e-21 4.50495e-05 0 6.77181e-22 4.44577e-05 0 9.3136e-06 6.31105e-06 0 4.78198e-06 9.38303e-06 0 2.70409e-06 8.56464e-07 0 1.24548e-07 3.31804e-06 0 -1.16102e-06 -2.94886e-22 0 -2.11118e-06 -3.20553e-23 0 1.5414e-05 2.81921e-05 0 1.01016e-05 2.93415e-05 0 1.45861e-05 1.6491e-05 0 8.91776e-06 1.90167e-05 0 4.35276e-06 2.12371e-05 0 6.77775e-06 4.02965e-05 0 9.94732e-06 4.03689e-05 0 3.14451e-22 4.42126e-05 0 0 4.43954e-05 0 1.98357e-06 2.29458e-05 0 -1.03822e-06 2.55733e-05 0
