# vtk DataFile Version 2.0
Exported by GetFEM
ASCII
DATASET UNSTRUCTURED_GRID
POINTS 35 float
 2.13828 0.323419 0
 2.33896 0.39901 0
 1.95635 0.600782 0
 2.12969 0.748564 0
 1.93761 0.247828 0
 1.78302 0.453 0
 2.2085 0 0
 2.417 0 0
 2 0 0
 0.644993 1.23534 0
 0.590531 0.955415 0
 1.2672 1.05862 0
 1.165 0.812831 0
 0.699455 1.51527 0
 1.36939 1.30442 0
 0 1.2915 0
 0 1 0
 0 1.583 0
 2.83277 1.348 0
 2.48123 1.04828 0
 3.14145 0.704781 0
 2.74021 0.551895 0
 3.25 0 0
 2.8335 0 0
 1.783 2.29921 0
 1.5762 1.80181 0
 2.36495 1.88628 0
 2.07325 1.47803 0
 1.78156 1.06977 0
 0.809833 2.07637 0
 0.92021 2.63746 0
 0 2.1665 0
 0 2.75 0
 1.63739 0.867519 0
 1.49321 0.665266 0

CELLS 48 192
 3 0 1 2
 3 3 2 1
 3 4 0 5
 3 2 5 0
 3 6 7 0
 3 1 0 7
 3 8 6 4
 3 0 4 6
 3 9 10 11
 3 12 11 10
 3 13 9 14
 3 11 14 9
 3 15 16 9
 3 10 9 16
 3 17 15 13
 3 9 13 15
 3 18 19 20
 3 19 21 20
 3 19 3 21
 3 3 1 21
 3 20 21 22
 3 21 23 22
 3 21 1 23
 3 1 7 23
 3 24 25 26
 3 25 27 26
 3 25 14 27
 3 14 28 27
 3 26 27 18
 3 27 19 18
 3 27 28 19
 3 28 3 19
 3 14 25 13
 3 25 29 13
 3 25 24 29
 3 24 30 29
 3 13 29 17
 3 29 31 17
 3 29 30 31
 3 30 32 31
 3 33 28 11
 3 14 11 28
 3 34 33 12
 3 11 12 33
 3 2 3 33
 3 28 33 3
 3 5 2 34
 3 33 34 2

CELL_TYPES 48
 5
 5
 5
 5
 5
 5
 5
 5
 5
 5
 5
 5
 5
 5
 5
 5
 5
 5
 5
 5
 5
 5
 5
 5
 5
 5
 5
 5
 5
 5
 5
 5
 5
 5
 5
 5
 5
 5
 5
 5
 5
 5
 5
 5
 5
 5
 5
 5

POINT_DATA 35


SCALARS sigmayy float 1
LOOKUP_TABLE default
 43.0211 37.5935 19.528 20.3724 43.0211 32.3138 43.0211 37.5935 86.5291 3.3698 -1.3356 12.5248 12.5248 8.51073 14.4181 3.3698 -1.3356 8.95204 25.1998 34.2006 5.68771 17.3334 19.7595 37.5935 17.2428 17.546 17.652 19.5751 20.3724 13.6564 13.9826 13.9826 13.9826 19.528 19.528

VECTORS RHS float
 0 0 0 0 0 0 0 0 0 0 0 0 0 0 0 0 0 0 0 0 0 0 0 0 0 0 0 0 0 0 0 0 0 0 0 0 0 0 0 0 0 0 0 0 0 0 0 0 0 0 0 0 0 0 5.9075 3.88253 0 0 0 0 6.74 2.08617 0 0 0 0 3.52391 0.542725 0 0 0 0 3.75591 7.22369 0 0 0 0 4.75603 5.24883 0 0 0 0 0 0 0 0 0 0 2.25397 8.915 0 0 0 0 0.562676 4.60105 0 0 0 0 0 0 0

VECTORS U float
 -0.000210103 0.00061634 0 -0.000166623 0.000506695 0 -1.5686e-05 0.00133082 0 0.000130529 0.00117068 0 -0.000214131 0.000840253 0 -0.000190207 0.00161581 0 -0.000261724 5.93715e-21 0 -0.000269387 3.35477e-20 0 -0.000101382 -1.01637e-20 0 0.000218062 0.00410775 0 -1.81016e-06 0.00415975 0 0.000291675 0.00316964 0 -3.18886e-05 0.00332397 0 0.000390794 0.00406401 0 0.000551084 0.00305907 0 -2.29675e-19 0.00447096 0 8.1242e-19 0.00450495 0 0 0.00444577 0 0.000931359 0.000631105 0 0.000478198 0.000938303 0 0.000270409 8.56464e-05 0 1.24548e-05 0.000331804 0 -0.000116102 2.99923e-20 0 -0.000211118 -1.43608e-20 0 0.0015414 0.00281921 0 0.00101016 0.00293415 0 0.00145861 0.0016491 0 0.000891776 0.00190167 0 0.000435276 0.00212371 0 0.000677775 0.00402965 0 0.000994732 0.00403689 0 8.04995e-20 0.00442126 0 -4.46608e-19 0.00443954 0 0.000198357 0.00229458 0 -0.000103822 0.00255733 0
