# vtk DataFile Version 2.0
Exported by GetFEM
ASCII
DATASET UNSTRUCTURED_GRID
POINTS 93 float
 2.12969 0.748564 0
 2.04302 0.674673 0
 1.95635 0.600782 0
 2.2502 0.577865 0
 2.04732 0.4621 0
 2.33896 0.39901 0
 2.23862 0.361214 0
 2.13828 0.323419 0
 1.86969 0.526891 0
 1.78302 0.453 0
 1.87159 0.352538 0
 2.03795 0.285623 0
 1.93761 0.247828 0
 2.39741 0.201135 0
 2.17339 0.161709 0
 2.417 0 0
 2.31275 0 0
 2.2085 0 0
 1.98434 0.124892 0
 2.10425 0 0
 2 0 0
 1.165 0.812831 0
 1.2161 0.935727 0
 1.2672 1.05862 0
 0.889271 0.895712 0
 0.956094 1.14698 0
 0.590531 0.955415 0
 0.617762 1.09538 0
 0.644993 1.23534 0
 1.31829 1.18152 0
 1.36939 1.30442 0
 1.04687 1.42681 0
 0.672224 1.3753 0
 0.699455 1.51527 0
 0.298613 0.988791 0
 0.322496 1.26342 0
 0 1 0
 0 1.14575 0
 0 1.2915 0
 0.35353 1.56597 0
 0 1.43725 0
 0 1.583 0
 2.83277 1.348 0
 2.657 1.19814 0
 2.48123 1.04828 0
 3.01119 1.03467 0
 2.61072 0.800089 0
 3.14145 0.704781 0
 2.94083 0.628338 0
 2.74021 0.551895 0
 2.30546 0.898423 0
 2.53958 0.475453 0
 3.22275 0.35537 0
 2.78685 0.275948 0
 3.25 0 0
 3.04175 0 0
 2.8335 0 0
 2.62525 0 0
 1.783 2.29921 0
 1.6796 2.05051 0
 1.5762 1.80181 0
 2.08828 2.10718 0
 1.82472 1.63992 0
 2.36495 1.88628 0
 2.2191 1.68215 0
 2.07325 1.47803 0
 1.47279 1.55311 0
 1.58563 1.19474 0
 1.92741 1.2739 0
 1.78156 1.06977 0
 2.61825 1.62921 0
 2.27724 1.26315 0
 1.97094 0.916288 0
 1.19301 1.93909 0
 0.754644 1.79582 0
 0.809833 2.07637 0
 1.3663 2.49518 0
 0.865021 2.35691 0
 0.92021 2.63746 0
 0.404916 2.12143 0
 0 1.87475 0
 0 2.1665 0
 0.464886 2.72172 0
 0 2.45825 0
 0 2.75 0
 1.45229 0.963072 0
 1.70947 0.968646 0
 1.63739 0.867519 0
 1.33727 0.743589 0
 1.5653 0.766392 0
 1.49321 0.665266 0
 1.79687 0.73415 0
 1.65181 0.563807 0

CELLS 24 216
 8 0 2 7 5 1 4 6 3
 8 2 9 12 7 8 10 11 4
 8 5 7 17 15 6 14 16 13
 8 7 12 20 17 11 18 19 14
 8 21 23 28 26 22 25 27 24
 8 23 30 33 28 29 31 32 25
 8 26 28 38 36 27 35 37 34
 8 28 33 41 38 32 39 40 35
 8 42 44 49 47 43 46 48 45
 8 44 0 5 49 50 3 51 46
 8 47 49 56 54 48 53 55 52
 8 49 5 15 56 51 13 57 53
 8 58 60 65 63 59 62 64 61
 8 60 30 69 65 66 67 68 62
 8 63 65 44 42 64 71 43 70
 8 65 69 0 44 68 72 50 71
 8 30 60 75 33 66 73 74 31
 8 60 58 78 75 59 76 77 73
 8 33 75 81 41 74 79 80 39
 8 75 78 84 81 77 82 83 79
 8 30 23 87 69 29 85 86 67
 8 23 21 90 87 22 88 89 85
 8 69 87 2 0 86 91 1 72
 8 87 90 9 2 89 92 8 91

CELL_TYPES 24
 23
 23
 23
 23
 23
 23
 23
 23
 23
 23
 23
 23
 23
 23
 23
 23
 23
 23
 23
 23
 23
 23
 23
 23

POINT_DATA 93


SCALARS sigmayy float 1
LOOKUP_TABLE default
 35.683 37.6347 39.7412 38.5934 47.149 37.3325 43.8779 57.4573 35.9199 33.2145 49.9553 62.5095 74.1482 40.2023 59.4492 36.2703 46.096 62.8945 100.912 77.0802 108.155 1.80773 6.06746 8.6739 -0.700331 4.47691 -0.833709 0.815705 2.45082 11.8364 14.3357 9.2304 4.74592 6.82664 -1.58611 1.13047 -1.4439 -0.189375 0.894227 4.43564 2.88614 4.65062 14.8318 18.9349 25.5657 10.1851 23.1842 2.21292 11.1109 19.8335 29.3315 27.3987 2.56737 18.9486 -2.23767 6.87676 16.584 24.9722 21.1899 19.7883 19.0388 19.8261 20.919 19.0736 21.1293 23.9149 17.1647 18.0964 23.9097 24.5207 17.2624 24.3506 28.9866 15.3728 10.2571 13.3003 18.8611 16.1904 19.1951 11.5254 8.08928 11.3503 17.2907 14.7221 18.0065 12.8299 21.9719 19.6247 3.64067 15.6186 8.64987 27.3212 16.0481

VECTORS RHS float
 0 0 0 0 0 0 0 0 0 0 0 0 0 0 0 0 0 0 0 0 0 0 0 0 0 0 0 0 0 0 0 0 0 0 0 0 0 0 0 0 0 0 0 0 0 0 0 0 0 0 0 0 0 0 0 0 0 0 0 0 0 0 0 0 0 0 0 0 0 0 0 0 0 0 0 0 0 0 0 0 0 0 0 0 0 0 0 0 0 0 0 0 0 0 0 0 0 0 0 0 0 0 0 0 0 0 0 0 0 0 0 0 0 0 0 0 0 0 0 0 0 0 0 0 0 0 1.99444 1.32546 0 0 0 0 0 0 0 4.28813 2.05793 0 0 0 0 2.28197 0.714976 0 0 0 0 0 0 0 0 0 0 0 0 0 4.69854 0.723634 0 0 0 0 1.1945 0.000761767 0 0 0 0 0 0 0 0 0 0 1.33471 2.40526 0 0 0 0 0 0 0 2.75283 3.87965 0 0 0 0 1.60112 1.78353 0 0 0 0 0 0 0 0 0 0 0 0 0 0 0 0 0 0 0 3.58855 3.11878 0 0 0 0 0 0 0 0 0 0 0 0 0 0 0 0 2.25506 5.75193 0 0 0 0 0.758947 3.03779 0 0 0 0 0 0 0 0 0 0 0.750235 6.13474 0 0 0 0 0.000969933 1.56555 0 0 0 0 0 0 0 0 0 0 0 0 0 0 0 0 0 0 0 0 0 0 0 0 0

VECTORS U float
 -0.000368313 0.00140637 0 -0.000470522 0.00151272 0 -0.000577065 0.00165247 0 -0.000622958 0.000943072 0 -0.000766043 0.00119097 0 -0.000849797 0.000570668 0 -0.000896639 0.000642649 0 -0.000932636 0.000740699 0 -0.000693863 0.00183898 0 -0.00084574 0.00210104 0 -0.000912729 0.00160313 0 -0.000956064 0.000877507 0 -0.00096328 0.00110807 0 -0.0010157 0.000259178 0 -0.00106459 0.000358873 0 -0.00107686 -4.0752e-20 0 -0.00110367 7.15329e-20 0 -0.00111281 -9.87829e-20 0 -0.00100433 0.000549277 0 -0.00109636 -5.60401e-20 0 -0.00100977 -4.2046e-19 0 -0.00046426 0.0041779 0 -0.000215529 0.00406025 0 -2.73416e-06 0.00395465 0 -0.000334488 0.00473846 0 4.36265e-05 0.00462533 0 -0.000211564 0.00516134 0 -6.00848e-05 0.00513547 0 7.441e-05 0.00510393 0 0.000184781 0.00386302 0 0.000354118 0.00378426 0 0.00038063 0.00448981 0 0.00019559 0.00507246 0 0.000306501 0.0050415 0 -0.000103891 0.00540785 0 3.99778e-05 0.00540075 0 -7.38397e-19 0.00549066 0 5.22645e-19 0.00549953 0 -3.73257e-19 0.00549886 0 0.000170764 0.00537108 0 1.08205e-19 0.00549361 0 -1.39149e-19 0.00548522 0 0.000683898 0.00057445 0 0.000362687 0.000833588 0 8.83214e-05 0.00104187 0 0.000170905 0.000184859 0 -0.00029281 0.000639736 0 -0.000287986 -2.18346e-05 0 -0.000458999 0.000169937 0 -0.000608198 0.000320121 0 -0.000152039 0.00122272 0 -0.000738028 0.000447852 0 -0.000616163 -5.69229e-05 0 -0.000849347 0.000136416 0 -0.00073589 6.1022e-20 0 -0.00083381 -7.54112e-20 0 -0.000925357 2.48754e-20 0 -0.00100647 4.30056e-20 0 0.00174643 0.00329885 0 0.00135277 0.00342515 0 0.0010015 0.0035393 0 0.00169829 0.00255115 0 0.000902532 0.00290564 0 0.00149735 0.00181542 0 0.00108971 0.00204014 0 0.000735869 0.002233 0 0.000677345 0.00365298 0 0.000265661 0.00320601 0 0.000418472 0.00241374 0 0.000116322 0.00261322 0 0.00113781 0.00113155 0 0.00042654 0.00161789 0 -0.00010465 0.00197862 0 0.000915949 0.00433671 0 0.000516205 0.00498663 0 0.000721471 0.00494132 0 0.00157206 0.00416907 0 0.000939106 0.00490266 0 0.001179 0.00486727 0 0.000380505 0.00532723 0 4.66345e-20 0.00546957 0 -1.72099e-19 0.00545837 0 0.000630484 0.00530639 0 4.73651e-20 0.0054553 0 -9.82934e-19 0.00545899 0 -0.000101491 0.00345089 0 -3.8132e-05 0.00273091 0 -0.000209194 0.00287488 0 -0.000557845 0.00373862 0 -0.000406555 0.00305106 0 -0.000649512 0.00326352 0 -0.000390122 0.00228623 0 -0.000753245 0.00268913 0
