# vtk DataFile Version 2.0
Exported by GetFEM
ASCII
DATASET UNSTRUCTURED_GRID
POINTS 117 float
 2.13828 0.323419 0
 2.23862 0.361214 0
 2.33896 0.39901 0
 2.04732 0.4621 0
 2.14766 0.499896 0
 1.95635 0.600782 0
 2.12969 0.748564 0
 2.04302 0.674673 0
 2.2502 0.577865 0
 1.93761 0.247828 0
 2.03795 0.285623 0
 1.87159 0.352538 0
 1.96065 0.388209 0
 1.78302 0.453 0
 1.86969 0.526891 0
 2.2085 0 0
 2.31275 0 0
 2.417 0 0
 2.17339 0.161709 0
 2.27764 0.161709 0
 2.39741 0.201135 0
 2 0 0
 2.10425 0 0
 1.98434 0.124892 0
 2.07305 0.123914 0
 0.644993 1.23534 0
 0.617762 1.09538 0
 0.590531 0.955415 0
 0.956094 1.14698 0
 0.928863 1.00702 0
 1.2672 1.05862 0
 1.165 0.812831 0
 1.2161 0.935727 0
 0.889271 0.895712 0
 0.699455 1.51527 0
 0.672224 1.3753 0
 1.04687 1.42681 0
 1.00719 1.26988 0
 1.36939 1.30442 0
 1.31829 1.18152 0
 0 1.2915 0
 0 1.14575 0
 0 1 0
 0.322496 1.26342 0
 0.322496 1.11767 0
 0.298613 0.988791 0
 0 1.583 0
 0 1.43725 0
 0.35353 1.56597 0
 0.349727 1.40338 0
 2.83277 1.348 0
 2.657 1.19814 0
 2.48123 1.04828 0
 3.01119 1.03467 0
 2.81134 0.876531 0
 3.14145 0.704781 0
 2.61072 0.800089 0
 2.74021 0.551895 0
 2.94083 0.628338 0
 2.30546 0.898423 0
 2.43495 0.65023 0
 2.53958 0.475453 0
 3.22275 0.35537 0
 2.9951 0.275948 0
 3.25 0 0
 2.78685 0.275948 0
 2.8335 0 0
 3.04175 0 0
 2.58623 0.199505 0
 2.62525 0 0
 1.783 2.29921 0
 1.6796 2.05051 0
 1.5762 1.80181 0
 2.08828 2.10718 0
 1.97057 1.84405 0
 2.36495 1.88628 0
 1.82472 1.63992 0
 2.07325 1.47803 0
 2.2191 1.68215 0
 1.47279 1.55311 0
 1.72132 1.39122 0
 1.58563 1.19474 0
 1.78156 1.06977 0
 1.92741 1.2739 0
 2.61825 1.62921 0
 2.45301 1.41301 0
 2.27724 1.26315 0
 2.13139 1.05903 0
 1.97094 0.916288 0
 1.13783 1.65854 0
 1.19301 1.93909 0
 0.809833 2.07637 0
 0.754644 1.79582 0
 1.29642 2.18779 0
 1.3663 2.49518 0
 0.92021 2.63746 0
 0.865021 2.35691 0
 0.404916 1.82968 0
 0.404916 2.12143 0
 0 2.1665 0
 0 1.87475 0
 0.460105 2.40198 0
 0.464886 2.72172 0
 0 2.75 0
 0 2.45825 0
 1.63739 0.867519 0
 1.70947 0.968646 0
 1.45229 0.963072 0
 1.52438 1.0642 0
 1.49321 0.665266 0
 1.5653 0.766392 0
 1.33727 0.743589 0
 1.40119 0.840175 0
 1.79687 0.73415 0
 1.88354 0.808041 0
 1.65181 0.563807 0
 1.72478 0.633024 0

CELLS 48 336
 6 0 2 5 1 4 3
 6 6 5 2 7 4 8
 6 9 0 13 10 12 11
 6 5 13 0 14 12 3
 6 15 17 0 16 19 18
 6 2 0 17 1 19 20
 6 21 15 9 22 24 23
 6 0 9 15 10 24 18
 6 25 27 30 26 29 28
 6 31 30 27 32 29 33
 6 34 25 38 35 37 36
 6 30 38 25 39 37 28
 6 40 42 25 41 44 43
 6 27 25 42 26 44 45
 6 46 40 34 47 49 48
 6 25 34 40 35 49 43
 6 50 52 55 51 54 53
 6 52 57 55 56 58 54
 6 52 6 57 59 60 56
 6 6 2 57 8 61 60
 6 55 57 64 58 63 62
 6 57 66 64 65 67 63
 6 57 2 66 61 68 65
 6 2 17 66 20 69 68
 6 70 72 75 71 74 73
 6 72 77 75 76 78 74
 6 72 38 77 79 80 76
 6 38 82 77 81 83 80
 6 75 77 50 78 85 84
 6 77 52 50 86 51 85
 6 77 82 52 83 87 86
 6 82 6 52 88 59 87
 6 38 72 34 79 89 36
 6 72 91 34 90 92 89
 6 72 70 91 71 93 90
 6 70 95 91 94 96 93
 6 34 91 46 92 97 48
 6 91 99 46 98 100 97
 6 91 95 99 96 101 98
 6 95 103 99 102 104 101
 6 105 82 30 106 108 107
 6 38 30 82 39 108 81
 6 109 105 31 110 112 111
 6 30 31 105 32 112 107
 6 5 6 105 7 114 113
 6 82 105 6 106 114 88
 6 13 5 109 14 116 115
 6 105 109 5 110 116 113

CELL_TYPES 48
 22
 22
 22
 22
 22
 22
 22
 22
 22
 22
 22
 22
 22
 22
 22
 22
 22
 22
 22
 22
 22
 22
 22
 22
 22
 22
 22
 22
 22
 22
 22
 22
 22
 22
 22
 22
 22
 22
 22
 22
 22
 22
 22
 22
 22
 22
 22
 22

POINT_DATA 117


SCALARS sigmayy float 1
LOOKUP_TABLE default
 54.0549 43.6708 37.5206 45.2715 41.6242 31.9215 31.4106 39.3539 39.565 81.1082 67.5815 51.6002 47.9158 27.3151 34.7028 62.8271 49.1648 36.6193 58.441 47.6819 40.2929 103.563 78.2549 102.09 71.9676 2.15596 0.771005 -1.44487 4.07708 3.28868 8.75822 4.44342 6.60082 -1.81093 6.52046 4.51193 9.41004 7.30496 14.1494 12.4179 -0.400776 -0.250889 -0.619597 0.877586 0.405182 -2.09535 4.28102 2.97947 4.37865 3.23357 14.1356 19.6492 24.6917 10.6022 15.3897 3.11595 23.558 20.0486 11.4556 30.374 28.3248 28.2249 2.82031 10.2133 -0.762691 19.1474 13.4252 7.81888 27.3871 25.1256 20.9541 19.9374 19.3471 20.1986 19.1719 18.8766 20.8757 23.3577 21.1422 17.4875 19.0935 17.4055 23.761 24.4587 17.7921 19.2428 24.6198 25.116 28.5694 12.3631 15.8315 13.5575 10.2048 16.8551 19.1336 18.2529 16.0474 7.97211 11.7203 11.3498 7.82788 14.5055 17.3767 17.6003 14.5023 19.6014 22.7428 11.8177 16.0973 14.429 17.0152 1.50924 9.66034 25.7614 28.4731 14.6944 23.1753

VECTORS RHS float
 0 0 0 0 0 0 0 0 0 0 0 0 0 0 0 0 0 0 0 0 0 0 0 0 0 0 0 0 0 0 0 0 0 0 0 0 0 0 0 0 0 0 0 0 0 0 0 0 0 0 0 0 0 0 0 0 0 0 0 0 0 0 0 0 0 0 0 0 0 0 0 0 0 0 0 0 0 0 0 0 0 0 0 0 0 0 0 0 0 0 0 0 0 0 0 0 0 0 0 0 0 0 0 0 0 0 0 0 0 0 0 0 0 0 0 0 0 0 0 0 0 0 0 0 0 0 0 0 0 0 0 0 0 0 0 0 0 0 0 0 0 0 0 0 0 0 0 0 0 0 1.99444 1.32546 0 0 0 0 0 0 0 4.28813 2.05793 0 0 0 0 2.28197 0.714976 0 0 0 0 0 0 0 0 0 0 0 0 0 0 0 0 0 0 0 4.69854 0.723634 0 0 0 0 1.1945 0.000761767 0 0 0 0 0 0 0 0 0 0 0 0 0 0 0 0 1.33471 2.40526 0 0 0 0 0 0 0 2.75283 3.87965 0 0 0 0 1.60112 1.78353 0 0 0 0 0 0 0 0 0 0 0 0 0 0 0 0 0 0 0 0 0 0 0 0 0 3.58855 3.11878 0 0 0 0 0 0 0 0 0 0 0 0 0 0 0 0 0 0 0 0 0 0 0 0 0 0 0 0 2.25506 5.75193 0 0.758947 3.03779 0 0 0 0 0 0 0 0 0 0 0 0 0 0 0 0 0 0 0 0.750235 6.13474 0 0.000969933 1.56555 0 0 0 0 0 0 0 0 0 0 0 0 0 0 0 0 0 0 0 0 0 0 0 0 0 0 0 0 0 0 0 0 0 0 0 0 0 0 0 0

VECTORS U float
 -0.000923896 0.000734722 0 -0.000888622 0.000641095 0 -0.000843392 0.000568888 0 -0.000759602 0.00118788 0 -0.000715312 0.00102115 0 -0.000568935 0.00164472 0 -0.000364218 0.00139943 0 -0.00046571 0.00150875 0 -0.000615672 0.000941805 0 -0.000944993 0.0011064 0 -0.000943192 0.00088129 0 -0.000906297 0.00158469 0 -0.000851143 0.00131565 0 -0.000831984 0.00210267 0 -0.000686254 0.00183824 0 -0.00109965 1.02647e-21 0 -0.00109316 -3.48102e-20 0 -0.00106628 -8.08477e-20 0 -0.00105161 0.000361181 0 -0.00104711 0.000276326 0 -0.00100372 0.000261759 0 -0.000984831 3.89123e-20 0 -0.0010777 -1.3006e-20 0 -0.000994962 0.00054036 0 -0.00104884 0.000388041 0 7.63341e-05 0.00509379 0 -5.82858e-05 0.00512451 0 -0.000211183 0.00515173 0 4.58872e-05 0.00461105 0 -0.000149483 0.00465382 0 1.47936e-06 0.00394632 0 -0.000460809 0.00417185 0 -0.00021182 0.0040526 0 -0.00032972 0.00472297 0 0.000308059 0.00503104 0 0.000196808 0.00506174 0 0.00038265 0.00447648 0 0.000204048 0.00452854 0 0.000356768 0.00377512 0 0.000186817 0.00385496 0 -3.3934e-19 0.00548918 0 7.22536e-19 0.00548849 0 -1.87033e-18 0.00548085 0 4.11808e-05 0.00538769 0 -3.11752e-05 0.0053879 0 -0.000102854 0.00539551 0 2.25904e-19 0.00547519 0 -3.06631e-20 0.00548286 0 0.000172397 0.00535738 0 0.000108148 0.00536632 0 0.000685053 0.000574587 0 0.000366272 0.000830505 0 9.15622e-05 0.00103927 0 0.000175998 0.000185071 0 -0.000135943 0.000415678 0 -0.000280697 -1.7689e-05 0 -0.000286912 0.000638724 0 -0.000599645 0.000321352 0 -0.000451041 0.000169137 0 -0.000147633 0.00121935 0 -0.000515233 0.000745762 0 -0.000729879 0.00044623 0 -0.000607475 -5.79036e-05 0 -0.000759745 4.69089e-05 0 -0.000725129 1.3538e-19 0 -0.000840419 0.000136564 0 -0.000913639 0 0 -0.000824567 1.3048e-19 0 -0.00095404 0.000169862 0 -0.000999862 -7.71759e-20 0 0.00174538 0.00328788 0 0.00135166 0.00341542 0 0.00100131 0.00352878 0 0.00169683 0.00254519 0 0.00124003 0.00268653 0 0.00149579 0.00180969 0 0.000902897 0.0028985 0 0.000736326 0.00222551 0 0.00109016 0.00203384 0 0.000676725 0.00364471 0 0.000550295 0.00298573 0 0.000268644 0.0031961 0 0.000119471 0.00260385 0 0.000419789 0.00240772 0 0.00113875 0.0011297 0 0.000702696 0.0013612 0 0.000429082 0.00161455 0 0.00010753 0.00174457 0 -0.000100751 0.00197264 0 0.00063722 0.00435863 0 0.000915129 0.00432772 0 0.000721257 0.00492831 0 0.00051559 0.0049748 0 0.00121314 0.00421044 0 0.00156956 0.00416166 0 0.00117906 0.004853 0 0.000937774 0.00489049 0 0.000291696 0.00531647 0 0.00038018 0.00531512 0 0 0.00544454 0 4.10879e-20 0.00545523 0 0.000520626 0.00528578 0 0.000627855 0.00529593 0 3.15101e-19 0.00544321 0 2.73269e-20 0.0054414 0 -0.00020353 0.00286604 0 -3.53309e-05 0.00272316 0 -9.81316e-05 0.00344023 0 7.35479e-05 0.00328758 0 -0.000644341 0.00326274 0 -0.000401799 0.00304388 0 -0.000552994 0.00372551 0 -0.000328902 0.00355136 0 -0.000387164 0.00227721 0 -0.00026409 0.00209339 0 -0.000746766 0.00266853 0 -0.000577051 0.00243712 0
